/*--------------------------------*- C++ -*----------------------------------*\
  =========                 |
  \\      /  F ield         | OpenFOAM: The Open Source CFD Toolbox
   \\    /   O peration     | Website:  https://openfoam.org
    \\  /    A nd           | Version:  6
     \\/     M anipulation  |
\*---------------------------------------------------------------------------*/
FoamFile
{
    version     2.0;
    format      ascii;
    class       volScalarField;
    location    "2.74";
    object      alpha.air;
}
// * * * * * * * * * * * * * * * * * * * * * * * * * * * * * * * * * * * * * //

dimensions      [0 0 0 0 0 0 0];

internalField   nonuniform List<scalar> 
256
(
0.866517444
0.777097745
0.857196321
0.777097745
0.886444436
0.835964183
0.887508892
0.869476977
0.83766584
0.83309123
0.798384554
0.778143638
0.892199538
0.857259889
0.892603783
0.872730567
0.891815441
0.824071564
0.892603783
0.83280704
0.878399036
0.786517083
0.881417257
0.850845902
0.884902015
0.84340879
0.858315325
0.818077662
0.890725539
0.837922785
0.89276773
0.86114924
0.892689816
0.849946818
0.893566133
0.890158898
0.866082378
0.786230998
0.869424359
0.821352603
0.892710795
0.841681139
0.893038927
0.873262013
0.886405841
0.786385282
0.886629059
0.847785103
0.891815441
0.841283953
0.892603783
0.864616024
0.85881623
0.786517083
0.860361153
0.79314133
0.892501816
0.843555788
0.892578716
0.861753523
0.877558236
0.783770285
0.876797246
0.807011197
0.891914058
0.862081251
0.892852513
0.834370975
0.843671867
0.78713387
0.852412491
0.793259987
0.891308596
0.863769539
0.892998989
0.832362098
0.852980828
0.783857258
0.86618015
0.793477649
0.890610819
0.891317818
0.892603783
0.871166739
0.82198752
0.822436975
0.851969211
0.79314133
0.889846046
0.89248077
0.892578716
0.860035203
0.822674704
0.785014179
0.856645778
0.793504446
0.883898939
0.891269406
0.888813049
0.893029796
0.783963379
0.826889878
0.823942899
0.79352665
0.884839328
0.893127005
0.888980368
0.893029796
0.79836747
0.787739749
0.811413783
0.795714672
0.871728708
0.891055077
0.871389824
0.893419574
0.784426571
0.818713814
0.781247723
0.829993651
0.872290331
0.893761595
0.869528921
0.893384103
0.786011958
0.793567191
0.785719853
0.828178914
0.863945365
0.891269406
0.85869965
0.893029796
0.784031683
0.881979133
0.780382811
0.882579711
0.861701153
0.893127622
0.854414659
0.893029796
0.786500131
0.821064476
0.785980952
0.821085257
0.839910502
0.889975936
0.841326606
0.892952818
0.841792413
0.893128611
0.782831758
0.893029796
0.8511561
0.893242423
0.842812835
0.893048391
0.786002728
0.884464948
0.785719853
0.873462883
0.785401084
0.882024438
0.81154415
0.880464274
0.856266604
0.893572859
0.868066952
0.893226935
0.809522872
0.890926869
0.839998616
0.884260564
0.830297787
0.893163763
0.857057014
0.890521478
0.785388459
0.867214419
0.785117111
0.855644126
0.839764406
0.893127622
0.893435339
0.89104278
0.78173046
0.875443348
0.839879095
0.848265691
0.834533273
0.893001031
0.892979407
0.890356701
0.785401084
0.85233926
0.783349949
0.837383331
0.874941099
0.879465657
0.890881545
0.88553736
0.78179853
0.814769437
0.827595971
0.81322003
0.876999393
0.883219393
0.886704212
0.888665739
0.793421609
0.837822053
0.783239886
0.819612867
0.887156626
0.871100542
0.887826056
0.887142529
0.811402568
0.77786792
0.79367878
0.818026378
0.892932778
0.87452051
0.884091822
0.891257484
0.827563512
0.799302395
0.781962134
0.787538931
0.887156453
0.878674669
0.88762358
0.883314086
0.821291363
0.778112371
0.788155979
0.801816662
0.892925392
0.878687713
0.891823044
0.888949446
0.816163071
0.777163833
0.777100968
0.777164074
0.887156626
0.864918886
0.887593818
0.874323725
0.814494717
0.786733202
0.816058949
0.778045421
0.892932778
0.868213814
0.893077319
0.879496465
)
;

boundaryField
{
    vin_DB
    {
        type            cyclic;
    }
    pout
    {
        type            cyclic;
    }
    w_F
    {
        type            cyclic;
    }
    w_B
    {
        type            cyclic;
    }
    w_L
    {
        type            cyclic;
    }
    w_R
    {
        type            cyclic;
    }
}


// ************************************************************************* //
