/*--------------------------------*- C++ -*----------------------------------*\
  =========                 |
  \\      /  F ield         | OpenFOAM: The Open Source CFD Toolbox
   \\    /   O peration     | Website:  https://openfoam.org
    \\  /    A nd           | Version:  6
     \\/     M anipulation  |
\*---------------------------------------------------------------------------*/
FoamFile
{
    version     2.0;
    format      ascii;
    class       volScalarField;
    location    "2.74";
    object      alpha.particles;
}
// * * * * * * * * * * * * * * * * * * * * * * * * * * * * * * * * * * * * * //

dimensions      [0 0 0 0 0 0 0];

internalField   nonuniform List<scalar> 
256
(
0.133482556
0.222902255
0.142803679
0.222902255
0.113555564
0.164035817
0.112491108
0.130523023
0.16233416
0.16690877
0.201615446
0.221856362
0.107800462
0.142740111
0.107396217
0.127269433
0.108184559
0.175928436
0.107396217
0.16719296
0.121600964
0.213482917
0.118582743
0.149154098
0.115097985
0.15659121
0.141684675
0.181922338
0.109274461
0.162077215
0.10723227
0.13885076
0.107310184
0.150053182
0.106433867
0.109841102
0.133917622
0.213769002
0.130575641
0.178647397
0.107289205
0.158318861
0.106961073
0.126737987
0.113594159
0.213614718
0.113370941
0.152214897
0.108184559
0.158716047
0.107396217
0.135383976
0.14118377
0.213482917
0.139638847
0.20685867
0.107498184
0.156444212
0.107421284
0.138246477
0.122441764
0.216229715
0.123202754
0.192988803
0.108085942
0.137918749
0.107147487
0.165629025
0.156328133
0.21286613
0.147587509
0.206740013
0.108691404
0.136230461
0.107001011
0.167637902
0.147019172
0.216142742
0.13381985
0.206522351
0.109389181
0.108682182
0.107396217
0.128833261
0.17801248
0.177563025
0.148030789
0.20685867
0.110153954
0.10751923
0.107421284
0.139964797
0.177325296
0.214985821
0.143354222
0.206495554
0.116101061
0.108730594
0.111186951
0.106970204
0.216036621
0.173110122
0.176057101
0.20647335
0.115160672
0.106872995
0.111019632
0.106970204
0.20163253
0.212260251
0.188586217
0.204285328
0.128271292
0.108944923
0.128610176
0.106580426
0.215573429
0.181286186
0.218752277
0.170006349
0.127709669
0.106238405
0.130471079
0.106615897
0.213988042
0.206432809
0.214280147
0.171821086
0.136054635
0.108730594
0.14130035
0.106970204
0.215968317
0.118020867
0.219617189
0.117420289
0.138298847
0.106872378
0.145585341
0.106970204
0.213499869
0.178935524
0.214019048
0.178914743
0.160089498
0.110024064
0.158673394
0.107047182
0.158207587
0.106871389
0.217168242
0.106970204
0.1488439
0.106757577
0.157187165
0.106951609
0.213997272
0.115535052
0.214280147
0.126537117
0.214598916
0.117975562
0.18845585
0.119535726
0.143733396
0.106427141
0.131933048
0.106773065
0.190477128
0.109073131
0.160001384
0.115739436
0.169702213
0.106836237
0.142942986
0.109478522
0.214611541
0.132785581
0.214882889
0.144355874
0.160235594
0.106872378
0.106564661
0.10895722
0.21826954
0.124556652
0.160120905
0.151734309
0.165466727
0.106998969
0.107020593
0.109643299
0.214598916
0.14766074
0.216650051
0.162616669
0.125058901
0.120534343
0.109118455
0.11446264
0.21820147
0.185230563
0.172404029
0.18677997
0.123000607
0.116780607
0.113295788
0.111334261
0.206578391
0.162177947
0.216760114
0.180387133
0.112843374
0.128899458
0.112173944
0.112857471
0.188597432
0.22213208
0.20632122
0.181973622
0.107067222
0.12547949
0.115908178
0.108742516
0.172436488
0.200697605
0.218037866
0.212461069
0.112843547
0.121325331
0.11237642
0.116685914
0.178708637
0.221887629
0.211844021
0.198183338
0.107074608
0.121312287
0.108176956
0.111050554
0.183836929
0.222836167
0.222899032
0.222835926
0.112843374
0.135081114
0.112406182
0.125676275
0.185505283
0.213266798
0.183941051
0.221954579
0.107067222
0.131786186
0.106922681
0.120503535
)
;

boundaryField
{
    vin_DB
    {
        type            cyclic;
    }
    pout
    {
        type            cyclic;
    }
    w_F
    {
        type            cyclic;
    }
    w_B
    {
        type            cyclic;
    }
    w_L
    {
        type            cyclic;
    }
    w_R
    {
        type            cyclic;
    }
}


// ************************************************************************* //
