/*--------------------------------*- C++ -*----------------------------------*\
  =========                 |
  \\      /  F ield         | OpenFOAM: The Open Source CFD Toolbox
   \\    /   O peration     | Website:  https://openfoam.org
    \\  /    A nd           | Version:  6
     \\/     M anipulation  |
\*---------------------------------------------------------------------------*/
FoamFile
{
    version     2.0;
    format      ascii;
    class       volScalarField;
    location    "2.74";
    object      alpha.particlesMean;
}
// * * * * * * * * * * * * * * * * * * * * * * * * * * * * * * * * * * * * * //

dimensions      [0 0 0 0 0 0 0];

internalField   nonuniform List<scalar> 
256
(
0.156743426
0.155602165
0.157207435
0.15581151
0.150717585
0.151954469
0.151184293
0.148940467
0.156184638
0.154975233
0.15642884
0.153841703
0.151567045
0.151294347
0.149943236
0.150283821
0.153693513
0.154007479
0.153830833
0.153870389
0.147848766
0.151721587
0.150151481
0.147646618
0.155774116
0.154329966
0.155687273
0.152832977
0.151895171
0.151901999
0.15080632
0.148774973
0.150403786
0.152919956
0.14973556
0.151120495
0.14719447
0.151293464
0.148524459
0.147729513
0.154233123
0.153233564
0.151821511
0.148679254
0.150391451
0.150587114
0.15041519
0.146583536
0.151218715
0.154097238
0.148684854
0.149666409
0.147376126
0.150495507
0.146714455
0.148405937
0.152587655
0.153376301
0.148704243
0.145988031
0.146782795
0.15109168
0.148181494
0.147284859
0.151904596
0.153916592
0.149445732
0.151195624
0.149119816
0.149342562
0.146689448
0.149948348
0.152305212
0.152406596
0.148777859
0.146405413
0.147208967
0.152545352
0.146175593
0.151242178
0.150586288
0.152090522
0.150105544
0.152524963
0.149859088
0.14988338
0.148071456
0.152644003
0.151364539
0.151136336
0.148238441
0.146564469
0.148452923
0.151914539
0.14657064
0.153755567
0.150881877
0.152022675
0.150128278
0.152499931
0.148661917
0.152715709
0.148927598
0.155561168
0.149838669
0.151237357
0.148405457
0.148175624
0.149118226
0.15290443
0.147906738
0.154798247
0.150640188
0.151423354
0.150031009
0.151025169
0.149265381
0.153887775
0.150738546
0.156439142
0.149128523
0.151703465
0.149048319
0.151617271
0.149039841
0.152452004
0.150332952
0.154992258
0.148585367
0.149385707
0.148295041
0.14743772
0.149549723
0.153971647
0.150828718
0.154480218
0.148281503
0.150975142
0.149747221
0.150581128
0.149673083
0.150448501
0.15050677
0.152807103
0.148405135
0.148461127
0.148144468
0.146316644
0.15113446
0.154120635
0.150604166
0.151633309
0.147941734
0.151642765
0.151380104
0.149065702
0.152213657
0.148474549
0.149903644
0.151082698
0.150345199
0.149635477
0.149739882
0.148309094
0.151915144
0.154314267
0.152467833
0.150017274
0.150357139
0.150672955
0.151907935
0.151626199
0.152916506
0.148669542
0.151166562
0.150637969
0.150608262
0.149006934
0.151195955
0.150199692
0.15257029
0.153207549
0.154055589
0.148649271
0.151078395
0.149049013
0.150421788
0.153202314
0.150537095
0.150987797
0.14982012
0.15134919
0.148251405
0.147110184
0.150597816
0.149571378
0.151444751
0.151301686
0.151772006
0.146843583
0.148806971
0.148012885
0.148602665
0.152698605
0.149394619
0.151578126
0.149345544
0.152696444
0.146234214
0.147163755
0.149411536
0.149015077
0.150737385
0.150841903
0.148824648
0.148134873
0.14931907
0.149327815
0.149997018
0.150893924
0.150304532
0.14977174
0.149556736
0.152228526
0.146988355
0.150119182
0.149374945
0.14974171
0.152513581
0.150122353
0.147799206
0.149598476
0.152162923
0.151539443
0.153017012
0.149634814
0.151099458
0.146873847
0.148413831
0.150593178
0.152105869
0.154247812
0.154684203
0.152789792
0.153331848
0.150693646
0.149938114
0.149569647
0.154557373
0.154203831
0.154559858
0.151322678
0.15112994
0.148097896
0.149096839
0.150052332
)
;

boundaryField
{
    vin_DB
    {
        type            cyclic;
    }
    pout
    {
        type            cyclic;
    }
    w_F
    {
        type            cyclic;
    }
    w_B
    {
        type            cyclic;
    }
    w_L
    {
        type            cyclic;
    }
    w_R
    {
        type            cyclic;
    }
}


// ************************************************************************* //
