/*--------------------------------*- C++ -*----------------------------------*\
  =========                 |
  \\      /  F ield         | OpenFOAM: The Open Source CFD Toolbox
   \\    /   O peration     | Website:  https://openfoam.org
    \\  /    A nd           | Version:  6
     \\/     M anipulation  |
\*---------------------------------------------------------------------------*/
FoamFile
{
    version     2.0;
    format      ascii;
    class       volScalarField;
    location    "2.74";
    object      dgdt;
}
// * * * * * * * * * * * * * * * * * * * * * * * * * * * * * * * * * * * * * //

dimensions      [0 0 -1 0 0 0 0];

internalField   nonuniform List<scalar> 
256
(
-8.84078913e-06
-2.45420353e-05
-9.46817194e-06
-5.06228697e-05
7.9461226e-07
-3.19964676e-07
3.44440893e-07
-8.33794147e-06
-2.61293259e-05
2.53956762e-07
-2.84870959e-05
-5.49194506e-05
2.25089016e-06
1.99404688e-06
-7.48601463e-06
-2.60304404e-05
1.35185e-05
5.08693598e-06
1.53845576e-05
-7.46161382e-07
2.80094114e-05
-6.24092869e-06
3.60230059e-05
3.51670265e-05
1.5885227e-05
3.52132658e-06
-7.7627346e-07
-1.06134763e-05
4.384341e-05
4.57315513e-05
4.45495169e-05
3.71482294e-05
2.99066621e-05
-4.88035035e-06
3.79317462e-05
2.08607967e-05
3.36319048e-05
-4.7740667e-06
4.3750803e-05
7.51001673e-05
3.42032742e-05
-1.1156643e-05
2.79492803e-05
2.66158195e-05
5.89973502e-05
1.86835153e-05
6.40989033e-05
9.41351424e-05
1.43302123e-05
-1.88019213e-05
2.00952325e-05
1.78101051e-05
2.16895921e-05
-2.41992128e-06
2.05754475e-05
4.93509712e-05
2.12242639e-05
-2.90110647e-05
1.68416699e-05
2.16755629e-05
3.51481065e-05
-3.76370997e-05
2.53914288e-05
6.51762855e-05
-9.32569324e-06
-2.1713265e-05
-1.18193198e-05
-5.45502224e-05
4.21884171e-07
-3.25950861e-05
-1.16271913e-05
-3.69410062e-05
-7.76462969e-06
-2.69479891e-05
-1.09681351e-05
-5.79636279e-05
1.96828461e-06
-3.17078197e-05
-1.13247994e-05
-4.07548485e-05
-3.00466085e-08
-1.82287234e-06
9.22136263e-07
-3.37445705e-05
3.0086323e-06
-1.75441498e-05
9.41345638e-06
-1.54393221e-05
-6.59037622e-06
6.2105159e-06
4.73950633e-06
-4.86824195e-05
-1.05766207e-05
-2.4104576e-05
4.2590703e-06
-3.87105534e-05
2.48944476e-06
-5.70552165e-06
4.52506212e-06
-1.64522095e-05
-5.86061956e-06
-7.82274379e-06
7.81779468e-06
-1.71948745e-05
1.429436e-06
-3.87944381e-06
1.01883171e-05
-1.91040577e-05
-1.32988769e-05
-2.03663298e-05
-5.65851732e-06
-2.27949667e-05
-1.4293468e-05
-2.21261556e-05
-2.24387702e-05
-5.45186579e-06
-3.8438791e-05
-5.10546477e-05
-6.28824806e-05
-4.40323496e-05
-1.36739817e-05
-2.40939966e-05
-1.90173433e-05
-3.70256996e-06
-2.4515001e-05
-3.43223235e-05
-4.07823363e-05
-2.03081763e-05
7.52107737e-06
7.35764788e-06
-1.1004034e-05
1.8019298e-05
-3.31302799e-05
-3.14438583e-06
-3.26385944e-05
1.19119876e-07
-2.63483444e-07
1.29388357e-06
-2.02500446e-05
1.91266279e-05
-4.01058459e-05
-2.04536888e-05
-2.06460169e-05
-2.12301384e-05
5.16643785e-05
5.58227597e-05
2.85235797e-05
5.37910842e-05
4.14729226e-06
2.76763693e-05
-3.26676887e-05
2.63961598e-05
5.77919072e-05
5.46705679e-05
1.27820438e-05
6.22110915e-05
-2.27751465e-05
1.41689089e-05
-2.71629027e-05
7.53356583e-06
3.84232474e-05
6.89483331e-05
3.03228504e-05
6.48209911e-05
9.35591635e-06
4.02890399e-05
9.69621114e-06
3.79025682e-05
6.11073013e-05
9.04678338e-05
4.5227818e-05
9.06139759e-05
-1.61875022e-06
3.91071396e-05
1.1712914e-05
3.09932252e-05
-6.67832317e-06
4.16815433e-05
1.30141178e-05
2.97443353e-05
-3.62324945e-05
2.71565323e-05
2.48489623e-05
1.65917828e-05
-3.67405509e-05
7.75774446e-05
4.69101861e-05
3.9186823e-05
-4.43890636e-05
3.04902509e-05
2.28883257e-05
1.6419417e-05
-2.97294509e-05
-4.4325775e-06
-2.64435043e-05
-1.54408009e-05
-2.7745894e-05
-2.41340115e-05
-1.40600719e-06
-1.89294205e-05
-3.47553067e-05
-1.4367074e-05
-1.97246548e-05
-4.93117391e-05
-3.22043175e-05
-1.76590027e-05
-6.97910387e-06
-2.16795416e-05
-1.83776469e-05
-1.41678121e-05
-3.59676808e-05
-2.11167576e-05
-7.1914082e-06
-4.39490864e-05
-3.86048137e-05
-2.54390243e-05
-1.01454144e-06
-5.48911657e-05
-9.51764994e-05
-5.30970368e-05
-1.18385289e-05
-4.4158081e-05
-4.72870564e-05
-2.56227836e-05
-6.80006882e-06
-1.72652574e-05
-5.28050748e-05
-2.64676485e-05
-4.27588175e-06
-1.55127975e-05
-4.39034756e-05
-2.00581907e-05
5.03831506e-06
5.94065774e-06
-5.21261925e-05
-1.84670917e-05
-8.18496164e-06
-2.69171411e-05
-4.27436453e-05
-1.7067533e-05
-3.5841e-05
-5.61358174e-05
-8.99879679e-05
-4.21769397e-05
-1.03605041e-05
-6.85964344e-06
-3.43426015e-05
-2.81530443e-05
-1.94357438e-05
-1.6690844e-05
-1.70630097e-05
-4.04107688e-05
-1.1367753e-05
-2.34040019e-05
-3.4426865e-05
-3.34321605e-05
)
;

boundaryField
{
    vin_DB
    {
        type            cyclic;
    }
    pout
    {
        type            cyclic;
    }
    w_F
    {
        type            cyclic;
    }
    w_B
    {
        type            cyclic;
    }
    w_L
    {
        type            cyclic;
    }
    w_R
    {
        type            cyclic;
    }
}


// ************************************************************************* //
