/*--------------------------------*- C++ -*----------------------------------*\
  =========                 |
  \\      /  F ield         | OpenFOAM: The Open Source CFD Toolbox
   \\    /   O peration     | Website:  https://openfoam.org
    \\  /    A nd           | Version:  6
     \\/     M anipulation  |
\*---------------------------------------------------------------------------*/
FoamFile
{
    version     2.0;
    format      ascii;
    class       volScalarField;
    location    "2.74";
    object      nut.particles;
}
// * * * * * * * * * * * * * * * * * * * * * * * * * * * * * * * * * * * * * //

dimensions      [0 2 -1 0 0 0 0];

internalField   nonuniform List<scalar> 
256
(
1.40161236e-07
1.80323719e-07
1.43654719e-07
1.77553737e-07
1.38891067e-07
1.31097515e-07
1.41049704e-07
1.3889788e-07
1.40968402e-07
1.36010659e-07
1.48855972e-07
1.64742911e-07
1.41919328e-07
1.34791726e-07
1.45485273e-07
1.4332332e-07
1.32932024e-07
1.38854108e-07
1.3255351e-07
1.31536739e-07
1.29775274e-07
1.34810877e-07
1.31501543e-07
1.27674526e-07
1.31629236e-07
1.2989356e-07
1.31487471e-07
1.33456088e-07
1.34001789e-07
1.24276268e-07
1.33769249e-07
1.30564912e-07
1.27033757e-07
1.23724465e-07
1.25081364e-07
1.20070479e-07
1.26333457e-07
1.46435454e-07
1.2722851e-07
1.17784601e-07
1.28190635e-07
1.31619102e-07
1.28915256e-07
1.19265102e-07
1.27081015e-07
1.31041674e-07
1.26792339e-07
1.156656e-07
1.34579442e-07
1.31951573e-07
1.32741127e-07
1.21915795e-07
1.29829812e-07
1.54279435e-07
1.3241751e-07
1.25139999e-07
1.32656275e-07
1.37223061e-07
1.3396096e-07
1.21067645e-07
1.28209488e-07
1.51756567e-07
1.3146673e-07
1.16411863e-07
1.41244923e-07
1.38237185e-07
1.41619532e-07
1.49111124e-07
1.32714916e-07
1.50847434e-07
1.36895706e-07
1.54655403e-07
1.40418227e-07
1.37103825e-07
1.42240158e-07
1.46809785e-07
1.32177024e-07
1.49588785e-07
1.35970111e-07
1.51372036e-07
1.39674452e-07
1.39378781e-07
1.39580426e-07
1.46910035e-07
1.31255073e-07
1.35097145e-07
1.30078942e-07
1.70820261e-07
1.40543492e-07
1.40318593e-07
1.39843875e-07
1.48227166e-07
1.39188831e-07
1.43492498e-07
1.30703535e-07
1.70739494e-07
1.3781297e-07
1.415813e-07
1.35439168e-07
1.42143491e-07
1.4134837e-07
1.38983824e-07
1.23736486e-07
1.59084449e-07
1.38116402e-07
1.42645568e-07
1.34860207e-07
1.41572225e-07
1.45920864e-07
1.49786312e-07
1.2822686e-07
1.57445845e-07
1.3873904e-07
1.44861925e-07
1.36723852e-07
1.3887515e-07
1.64647749e-07
1.52850516e-07
1.52802448e-07
1.41412966e-07
1.39035552e-07
1.462664e-07
1.36896168e-07
1.37699481e-07
1.425359e-07
1.54972236e-07
1.4902935e-07
1.34455098e-07
1.33936308e-07
1.39141029e-07
1.37283964e-07
1.36154695e-07
1.64353157e-07
1.38777648e-07
1.71335498e-07
1.34851899e-07
1.37635036e-07
1.432747e-07
1.40785181e-07
1.37298655e-07
1.50265838e-07
1.42885637e-07
1.63990202e-07
1.3792485e-07
1.20612591e-07
1.28857513e-07
1.29690038e-07
1.28627488e-07
1.30522851e-07
1.30936165e-07
1.57328441e-07
1.29614054e-07
1.23963504e-07
1.32077621e-07
1.34186898e-07
1.30087644e-07
1.56793012e-07
1.31019563e-07
1.67249466e-07
1.32351198e-07
1.25579205e-07
1.23210348e-07
1.25357075e-07
1.22612205e-07
1.23922776e-07
1.26294425e-07
1.27019084e-07
1.26345711e-07
1.16163855e-07
1.21744362e-07
1.24616485e-07
1.20512701e-07
1.32923866e-07
1.24955238e-07
1.27848095e-07
1.27021036e-07
1.5405619e-07
1.25420693e-07
1.35159855e-07
1.27558655e-07
1.36771503e-07
1.29065322e-07
1.26048696e-07
1.33214665e-07
1.57744201e-07
1.18455991e-07
1.20901291e-07
1.24834131e-07
1.34030449e-07
1.2676811e-07
1.23197635e-07
1.30886262e-07
1.64516261e-07
1.35339787e-07
1.48626471e-07
1.38376215e-07
1.42792023e-07
1.37808908e-07
1.35160583e-07
1.42572843e-07
1.71747935e-07
1.30581953e-07
1.33406116e-07
1.51474958e-07
1.43461523e-07
1.37928373e-07
1.35687199e-07
1.42895846e-07
1.58122209e-07
1.37629752e-07
1.52087339e-07
1.40729329e-07
1.42263135e-07
1.46340045e-07
1.46088457e-07
1.45286179e-07
1.4659842e-07
1.75623882e-07
1.61504182e-07
1.48174637e-07
1.45731659e-07
1.477209e-07
1.47612928e-07
1.46421306e-07
1.4100201e-07
1.39122111e-07
1.5838754e-07
1.45616952e-07
1.42093803e-07
1.40453409e-07
1.50412352e-07
1.43971897e-07
1.39264345e-07
1.69457078e-07
1.62933574e-07
1.41490963e-07
1.44198779e-07
1.44377133e-07
1.50635647e-07
1.439813e-07
1.46901101e-07
1.66931954e-07
1.77151786e-07
1.62468393e-07
1.42745977e-07
1.354711e-07
1.47857732e-07
1.43338725e-07
1.45969558e-07
1.53471551e-07
1.44244094e-07
1.5668394e-07
1.43926789e-07
1.39608067e-07
1.50359146e-07
1.44638204e-07
)
;

boundaryField
{
    vin_DB
    {
        type            cyclic;
    }
    pout
    {
        type            cyclic;
    }
    w_F
    {
        type            cyclic;
    }
    w_B
    {
        type            cyclic;
    }
    w_L
    {
        type            cyclic;
    }
    w_R
    {
        type            cyclic;
    }
}


// ************************************************************************* //
