/*--------------------------------*- C++ -*----------------------------------*\
  =========                 |
  \\      /  F ield         | OpenFOAM: The Open Source CFD Toolbox
   \\    /   O peration     | Website:  https://openfoam.org
    \\  /    A nd           | Version:  6
     \\/     M anipulation  |
\*---------------------------------------------------------------------------*/
FoamFile
{
    version     2.0;
    format      ascii;
    class       volScalarField;
    location    "2.74";
    object      p_rgh;
}
// * * * * * * * * * * * * * * * * * * * * * * * * * * * * * * * * * * * * * //

dimensions      [1 -1 -2 0 0 0 0];

internalField   nonuniform List<scalar> 
256
(
99998.6924
99999.8103
99998.487
99999.5795
99999.3163
100000.234
99999.2657
99999.6861
99998.817
99999.324
99999.0534
99999.3996
99999.191
99999.7645
99999.0574
99999.5735
99998.7198
99998.8048
99998.4882
99998.5138
99999.5992
100000.656
99999.4959
99999.8956
99998.8131
99999.4633
99998.7273
99998.733
99999.402
100000.072
99999.2245
99999.5772
99999.3721
99999.2541
99999.1564
99999.3118
100000.128
100000.822
100000.018
100000.602
99999.341
99999.7218
99999.221
99999.3034
100000.006
100000.918
99999.9043
100000.31
99999.8881
99999.6436
99999.7362
100000.36
100000.482
100000.466
100000.355
100001.492
99999.8548
99999.6752
99999.7828
100000.243
100000.595
100000.831
100000.415
100001.485
99999.9455
99999.4335
99999.8285
100000.174
100000.675
99999.8335
100000.348
100001.748
100000.029
99999.4717
99999.8499
100000.311
100000.943
100000.25
100000.504
100001.844
99999.9237
99999.4826
99999.7775
99999.3645
100000.826
99999.7097
100000.34
100000.569
99999.9477
99999.542
99999.7743
99999.3531
100001.001
100000.207
100000.584
100000.772
100000.091
99999.6177
100000.059
99999.109
100001.192
99999.8843
100000.938
99999.2561
100000.067
99999.6548
100000.066
99999.0518
100000.744
100000.143
100001.126
99999.4074
100000.148
99999.4362
100000.285
99999.2418
100000.954
99999.3212
100001.465
99998.9324
100000.206
99999.5286
100000.359
99999.2367
100000.508
99999.5626
100001.329
99999.231
100000.097
99999.3078
100000.127
99999.3543
99999.6252
99998.8041
100000.3
99998.8106
100000.102
99999.3366
100000.092
99999.3773
100000.719
99998.9497
100000.691
99999.3045
100000.581
99999.6745
100000.252
99999.7656
99999.2859
99999.0469
99999.2194
99999.0964
100000.304
99999.5297
99999.9614
99999.6815
99999.948
99998.9166
99999.6177
99999.0787
100001.617
100000.397
100000.72
100000.56
99999.8891
99999.662
99999.1821
99999.7511
100001.366
100000.297
100000.251
100000.522
99999.6146
99999.4412
99998.9898
99999.4879
100001.678
100001.056
100001.276
100001.181
100000.118
100000.288
99999.8333
100000.325
100001.964
100001.333
100000.871
100001.514
99999.9199
100000.216
99999.7858
100000.173
100000.823
100001.331
100001.284
100001.179
99999.7285
100000.68
100000.366
100000.386
100000.43
100002.273
100001.455
100001.357
99999.6898
100000.631
100000.416
100000.27
99999.9006
100001.131
100000.822
100000.944
99999.5446
100000.298
100000.222
100000.147
99999.7019
100001.666
100001.015
100000.535
99999.4286
100000.299
100000.091
100000.004
99999.4292
100001.32
100000.525
100000.903
99999.5048
99999.9783
99999.8346
100000.074
99999.5361
100000.152
99999.8745
100000.393
99999.3195
99999.8886
99999.7019
99999.9419
99999.2026
100001.373
99999.5322
100000.763
99999.4238
100000.157
99999.4407
99999.9029
99999.3683
99999.5777
99999.3179
100000.273
99999.263
99999.8548
99999.3717
99999.8823
)
;

boundaryField
{
    vin_DB
    {
        type            cyclic;
    }
    pout
    {
        type            cyclic;
    }
    w_F
    {
        type            cyclic;
    }
    w_B
    {
        type            cyclic;
    }
    w_L
    {
        type            cyclic;
    }
    w_R
    {
        type            cyclic;
    }
}


// ************************************************************************* //
