/*--------------------------------*- C++ -*----------------------------------*\
  =========                 |
  \\      /  F ield         | OpenFOAM: The Open Source CFD Toolbox
   \\    /   O peration     | Website:  https://openfoam.org
    \\  /    A nd           | Version:  6
     \\/     M anipulation  |
\*---------------------------------------------------------------------------*/
FoamFile
{
    version     2.0;
    format      ascii;
    class       surfaceScalarField;
    location    "2.74";
    object      phi;
}
// * * * * * * * * * * * * * * * * * * * * * * * * * * * * * * * * * * * * * //

dimensions      [0 3 -1 0 0 0 0];

internalField   nonuniform List<scalar> 
624
(
-4.19298945e-08
-4.08626626e-08
1.70978656e-07
8.41124634e-08
3.62041408e-08
-4.12135787e-07
1.99766727e-09
-5.12931474e-08
2.02525893e-07
6.82450246e-09
-2.15287055e-07
-1.01301782e-07
7.28440427e-08
7.06482679e-07
9.58707082e-08
1.29376113e-07
2.21954584e-07
1.70056812e-08
4.80666888e-08
9.35945777e-07
4.55729301e-08
7.72752278e-07
1.21670741e-08
-4.24883375e-08
1.87082834e-07
-1.85344005e-08
-5.92569975e-08
-2.78547177e-08
1.69482406e-08
-2.65036621e-08
2.76544192e-08
-1.41148772e-08
-1.15628851e-07
-4.64360918e-08
9.93544419e-07
7.35470587e-08
5.39896083e-07
-4.7143244e-09
1.06167703e-06
9.04366575e-07
2.40388073e-08
-8.5646288e-08
3.20460694e-07
6.49191414e-08
-4.02342734e-08
-3.70675943e-07
4.55168147e-08
-1.11233895e-07
4.02866529e-07
-8.07525752e-08
-6.62411855e-08
-9.60259022e-08
1.13776586e-07
6.35688054e-07
1.04984206e-07
1.09380406e-07
-1.2866997e-07
2.36637023e-08
8.58846673e-08
8.20145288e-07
8.60452322e-08
5.97012095e-07
5.02824024e-08
-6.85057585e-08
4.23539122e-07
9.82081601e-08
-5.29781007e-08
8.6577851e-08
4.96150857e-08
-5.81230346e-08
2.20255239e-07
-6.64518811e-08
-1.79736367e-08
-5.78248281e-08
9.69931307e-07
9.20510153e-08
2.94933745e-07
1.03937177e-08
1.01550241e-06
7.50583239e-07
9.58626307e-09
-4.68707646e-08
4.39562102e-07
2.25999911e-08
-5.30456945e-08
-2.26814197e-07
1.36874083e-08
-8.71230547e-08
5.76134029e-07
-1.07783865e-07
1.17371639e-07
-6.35078724e-08
1.04433882e-07
5.64929507e-07
9.08710729e-08
4.59612604e-08
-3.82055692e-07
9.06894384e-09
8.97064964e-08
7.25115185e-07
8.9722004e-08
3.9153157e-07
3.69952155e-08
-9.22944709e-08
6.1496216e-07
1.0756282e-07
-7.46795214e-08
1.36651591e-07
1.51658861e-08
-9.36360648e-08
4.95992644e-07
-1.04168218e-07
1.59388339e-07
-7.4707082e-08
9.14290013e-07
1.10472652e-07
-6.875573e-08
1.62348189e-08
9.38864935e-07
5.56732431e-07
6.01622023e-11
-1.75454416e-08
6.03221505e-07
-3.54431561e-08
-5.1677083e-08
-5.97613858e-08
-6.22657848e-08
-4.82991821e-08
7.40859966e-07
-6.27627533e-08
1.09402372e-07
-5.25836837e-09
5.93251416e-08
5.41083771e-07
3.67069461e-08
-1.23072902e-08
-4.63390708e-07
-3.85649539e-08
3.16412219e-08
7.20445502e-07
7.18029282e-08
1.7063132e-07
5.89070218e-08
-1.14191715e-07
7.76948673e-07
1.81006844e-08
-7.24038082e-08
2.37555931e-07
-5.32348181e-08
-9.70938691e-08
6.96061984e-07
-1.05387284e-07
2.35964222e-07
-1.82160121e-08
7.90244649e-07
6.59463031e-08
-3.05191922e-07
-3.21774718e-08
8.50287572e-07
3.09522344e-07
4.32734839e-08
-4.64402178e-08
7.46406005e-07
-1.02252248e-07
-7.22887698e-08
1.91112749e-07
-6.76261656e-08
-4.03833761e-08
8.40976147e-07
-8.6813247e-08
1.3520092e-07
8.25721859e-08
3.64900419e-08
4.62440894e-07
-1.71843257e-08
-3.75306678e-09
-4.32168674e-07
-7.49102156e-08
2.61790096e-08
7.11609637e-07
7.14977267e-08
-1.49448029e-07
9.39020093e-08
-1.27168567e-07
9.01641552e-07
-7.90332768e-08
-3.3250819e-08
4.39990552e-07
-9.08554828e-08
-7.73384777e-08
8.11402498e-07
-8.68639012e-08
2.48537427e-07
7.5428586e-08
5.731402e-07
1.27711659e-09
-2.97348471e-07
-6.73430661e-08
7.4721195e-07
2.31982409e-08
5.73488215e-08
-6.83116573e-08
8.20360325e-07
-9.94412489e-08
-4.60266392e-08
4.45991749e-07
4.41120508e-09
-5.83219653e-08
8.89264521e-07
-1.04409918e-07
3.372405e-07
1.05181757e-07
4.87532418e-08
2.76134198e-07
-7.17115624e-08
1.66331658e-08
-3.17934369e-07
-4.94458439e-08
3.54764021e-08
5.95545043e-07
6.30296424e-08
-4.02272931e-07
9.78469569e-08
-1.17105481e-07
9.46845218e-07
-5.7535646e-08
-2.47054818e-08
6.36711341e-07
-1.29613039e-09
-8.20241658e-08
8.72663197e-07
-8.44545085e-08
4.17536811e-07
7.58905895e-08
3.45721948e-07
-5.81620998e-08
-2.4006252e-07
-2.33999778e-08
5.36606495e-07
-2.06439928e-07
2.74330964e-08
-8.72696721e-08
8.23061218e-07
-9.91282761e-08
-3.9058144e-08
6.50923728e-07
1.07729942e-07
-9.36949718e-08
8.47852218e-07
-2.57730226e-08
5.89476521e-07
9.22565829e-08
6.42105608e-08
3.14000665e-09
-7.97603045e-08
2.14035229e-08
-2.06378787e-07
5.06661095e-08
5.54064203e-08
3.16016882e-07
3.94467664e-09
-3.52066262e-07
4.29762921e-08
-5.62335529e-08
9.11908362e-07
-7.45150942e-08
-2.13052029e-08
7.96911744e-07
1.09337123e-07
-9.1642274e-08
8.3585894e-07
-3.37934857e-08
6.77018104e-07
1.25556681e-08
2.27453585e-07
-9.40644158e-08
-1.94058915e-07
7.03521627e-08
2.08796613e-07
-1.81997002e-07
4.32144567e-08
-8.419814e-08
7.67200029e-07
-1.2032589e-07
-2.10111263e-09
8.14220528e-07
1.19883998e-07
-9.10986482e-08
7.33495221e-07
1.39795798e-08
7.88628317e-07
6.8631092e-08
6.98895639e-08
-3.32557365e-07
-8.68397504e-08
-1.3298439e-08
-3.9708367e-08
8.43042617e-08
7.58900197e-08
-2.21134991e-08
-2.70106007e-08
-1.13789749e-07
3.20688336e-08
1.32891315e-08
8.10091637e-07
-1.12799617e-07
-5.98544211e-11
9.28543422e-07
1.17698539e-07
-5.9423828e-08
7.40675796e-07
1.46301756e-08
8.79425319e-07
1.25742039e-08
1.45166442e-07
-6.43947258e-08
-1.1480223e-07
8.05798807e-08
-3.03531482e-08
-1.84227851e-10
7.22445447e-08
3.16217876e-09
6.12506523e-07
-9.67599127e-08
5.43402211e-08
8.85326738e-07
5.71017262e-08
-1.41342698e-08
6.00525525e-07
6.23129566e-08
8.62702142e-07
5.58693519e-08
6.03398865e-09
-4.73304729e-07
-9.59059748e-08
-4.70770233e-08
2.13484416e-07
8.2231363e-08
3.63665407e-08
-2.5075046e-07
-3.50325418e-08
1.47794529e-07
3.88545704e-08
-4.115723e-09
6.66432961e-07
-9.83081069e-08
3.68129583e-08
9.81816018e-07
4.68182941e-08
-2.76501952e-08
6.59567242e-07
3.0342661e-08
9.75820805e-07
7.88210174e-08
-6.21404124e-08
-4.96738603e-08
9.40639996e-08
2.41090121e-08
-1.38542499e-07
1.78639935e-07
9.64522874e-08
8.87894886e-08
2.85999231e-07
-5.79113695e-08
9.93818687e-08
8.61784851e-07
-1.2867926e-08
8.25837761e-08
4.43135771e-07
9.73417833e-08
7.91376536e-07
-7.44657852e-10
-7.89609808e-08
-3.09740532e-07
-2.87447263e-08
-5.42579817e-08
3.9512226e-07
3.2298321e-08
-1.3934797e-08
-2.15273731e-07
-6.83137817e-08
3.50677156e-07
5.84838443e-08
-2.41827735e-09
4.24316534e-07
-5.62496077e-08
6.31737376e-08
9.79113652e-07
-1.89897008e-08
3.90076777e-09
6.04471118e-07
5.82728386e-08
9.37326598e-07
7.10625415e-08
-2.08107252e-07
-6.96082155e-08
3.76427122e-07
-3.02702542e-08
-1.44217586e-07
3.81503712e-07
9.71943446e-08
5.84386872e-08
-6.71676168e-08
-3.22196074e-08
9.85217922e-08
7.8102782e-07
-5.88102479e-08
1.29290375e-07
2.31138305e-07
9.44183411e-08
6.34605805e-07
1.12986082e-08
-1.28871511e-07
-1.65985429e-07
4.89527388e-08
-6.93907124e-08
5.25377603e-07
-6.94487448e-08
-5.13939135e-08
8.3811451e-08
-9.28131919e-08
5.00713064e-07
8.23550935e-08
8.87678225e-08
-1.43031602e-09
-8.12063136e-09
9.92823765e-08
9.0090965e-07
-9.27061805e-08
8.00756764e-08
5.57584815e-07
1.10065113e-07
7.67485701e-07
1.92686544e-08
-1.00540549e-07
4.2577476e-08
5.64042257e-07
-8.24925518e-08
1.70223905e-07
5.72076726e-07
4.95851229e-08
9.08787774e-09
-2.68033006e-07
-2.01359184e-08
7.10569855e-08
7.06188126e-07
-6.71664799e-08
8.74660719e-08
6.05029749e-08
5.77300057e-08
4.87217406e-07
-3.30059497e-09
-1.32176345e-07
-3.97033713e-08
8.99517145e-08
-1.25698426e-07
6.28878674e-07
-7.51903893e-08
-1.02630654e-07
4.39048416e-07
-1.3324083e-07
6.34776864e-07
3.11591054e-08
1.29194186e-07
-4.09889009e-07
3.38359612e-08
1.37894393e-07
6.34634993e-07
-1.25618149e-07
1.02701818e-07
5.1170411e-07
1.24202127e-07
5.00352934e-07
-4.3208626e-09
6.62452666e-08
8.88989274e-08
6.82215821e-07
-8.32864606e-08
5.75308737e-07
7.44405481e-07
-1.84756147e-08
7.6535962e-08
-3.69887613e-07
1.64728667e-09
2.02047355e-08
6.7086175e-07
-4.86422145e-08
2.89360258e-08
5.13051247e-08
2.14334342e-08
3.85423711e-07
-1.00821603e-07
-5.46258902e-08
2.03485765e-07
8.64931711e-08
-1.77773555e-07
6.39543793e-07
-1.13498877e-09
-1.43270938e-07
6.98883644e-07
-1.1709414e-07
7.60966871e-07
-9.02422212e-08
9.08088271e-08
-5.46349249e-07
7.79338305e-08
1.68892727e-07
1.1979328e-07
-5.58701428e-08
1.07646196e-07
3.94591864e-07
1.10570493e-07
2.9808929e-07
-1.00653654e-07
2.79692497e-07
5.35202788e-08
6.91934809e-07
-4.5164282e-09
7.71544438e-07
9.03992631e-07
-6.62068958e-08
5.64397795e-08
-3.74962244e-07
1.1338566e-08
4.25858903e-08
5.47774939e-07
-3.35793881e-08
-1.07115687e-08
1.13684091e-07
3.05442739e-08
2.63856205e-07
-8.58273814e-08
3.11502293e-08
3.90679295e-07
4.43626801e-08
-1.12914563e-07
6.64856915e-07
6.04106577e-08
-1.30049172e-07
8.02176025e-07
-6.10005611e-08
8.36848086e-07
-1.44248727e-07
4.8257209e-08
-4.03901488e-07
3.13711736e-08
1.36258573e-07
-3.04997778e-07
7.43460656e-08
1.07043722e-07
1.1452777e-07
8.15978234e-08
2.14533338e-07
-1.20047236e-07
5.32477771e-07
3.28070905e-08
6.78298034e-07
3.35541091e-08
8.71096295e-07
1.00695376e-06
-9.6215286e-08
3.2314076e-08
-2.62914485e-07
4.57095487e-08
1.06328494e-07
2.26083511e-07
1.48023228e-08
2.00370245e-08
8.94786137e-08
5.0564955e-08
1.17422724e-07
-4.85773056e-08
4.18881683e-08
5.12152591e-07
4.95480383e-08
7.63052663e-09
6.65430563e-07
2.44643613e-08
-3.57568905e-08
8.83056745e-07
-2.87625535e-08
8.5817156e-07
-8.312692e-08
1.62491231e-08
-2.21091176e-07
-3.26166988e-08
4.73551399e-08
-3.95232826e-07
3.28850218e-08
3.75627645e-08
-2.42916356e-08
6.33213934e-08
8.12905897e-08
-8.20529907e-08
7.45772696e-07
1.54445827e-08
7.01596168e-07
5.58765129e-09
9.53596773e-07
1.02339746e-06
-9.93608944e-08
2.32642412e-08
6.57154681e-08
1.17897809e-07
4.83521682e-08
1.08385092e-08
6.09177089e-08
-9.06550629e-08
3.90014476e-08
7.60289201e-08
1.04345766e-07
-5.67674166e-09
1.91627513e-08
-1.28966683e-08
-5.38111508e-08
-5.02759381e-09
-5.58902337e-08
-4.161806e-08
-1.65528129e-08
-3.30311416e-08
3.69430587e-08
-8.20124217e-08
5.1832289e-08
-1.06290358e-08
)
;

boundaryField
{
    vin_DB
    {
        type            cyclic;
        value           nonuniform List<scalar> 
16
(
6.57050091e-08
-6.56913814e-07
4.544219e-08
-9.23589963e-07
1.9255683e-07
-5.1229903e-07
2.47189291e-07
-6.61803004e-07
-4.84927107e-08
-9.5644061e-07
1.14344211e-08
-1.03054346e-06
6.88622577e-08
-8.56468357e-07
6.29084489e-08
-1.00149181e-06
)
;
    }
    pout
    {
        type            cyclic;
        value           nonuniform List<scalar> 
16
(
-6.57050091e-08
6.56913814e-07
-4.544219e-08
9.23589963e-07
-1.9255683e-07
5.1229903e-07
-2.47189291e-07
6.61803004e-07
4.84927107e-08
9.5644061e-07
-1.14344211e-08
1.03054346e-06
-6.88622577e-08
8.56468357e-07
-6.29084489e-08
1.00149181e-06
)
;
    }
    w_F
    {
        type            cyclic;
        value           nonuniform List<scalar> 
64
(
-3.35933646e-08
-6.35703673e-08
-7.15465193e-08
-9.11363381e-08
-1.00847799e-07
-9.30238315e-08
-4.41109709e-08
3.74209233e-09
-1.1842531e-08
2.97191758e-08
7.80046792e-08
6.23334381e-08
1.49242427e-08
2.63121243e-08
1.77940526e-08
3.29428907e-09
5.73333384e-08
-4.21061359e-08
-1.0382952e-07
-7.98714618e-08
-3.3058373e-08
-5.20621545e-08
-3.93120427e-08
2.34628088e-09
4.35574818e-08
7.8519612e-08
1.11644512e-07
7.35012401e-08
-5.00101921e-09
2.95616021e-09
7.343879e-08
1.35668185e-07
-2.06247086e-08
-6.97055606e-08
-7.72347144e-08
-8.96056217e-08
-9.43580045e-08
-9.38189305e-08
-7.17512695e-08
-3.47528482e-08
-6.75705295e-09
2.97610942e-08
1.09296443e-07
1.30199335e-07
3.05523034e-08
-6.74811351e-09
3.50776174e-08
4.75139239e-08
2.13025655e-08
-4.70816356e-08
-7.24156901e-08
-4.6573659e-08
-4.57781068e-08
-6.31840098e-08
-1.74853426e-08
-1.43303679e-10
1.18424599e-08
7.26556276e-08
1.23065503e-07
1.02349465e-07
6.05899348e-08
4.59751213e-08
4.47315637e-08
4.93154045e-08
)
;
    }
    w_B
    {
        type            cyclic;
        value           nonuniform List<scalar> 
64
(
3.35933646e-08
6.35703673e-08
7.15465193e-08
9.11363381e-08
1.00847799e-07
9.30238315e-08
4.41109709e-08
-3.74209233e-09
1.1842531e-08
-2.97191758e-08
-7.80046792e-08
-6.23334381e-08
-1.49242427e-08
-2.63121243e-08
-1.77940526e-08
-3.29428907e-09
-5.73333384e-08
4.21061359e-08
1.0382952e-07
7.98714618e-08
3.3058373e-08
5.20621545e-08
3.93120427e-08
-2.34628088e-09
-4.35574818e-08
-7.8519612e-08
-1.11644512e-07
-7.35012401e-08
5.00101921e-09
-2.95616021e-09
-7.343879e-08
-1.35668185e-07
2.06247086e-08
6.97055606e-08
7.72347144e-08
8.96056217e-08
9.43580045e-08
9.38189305e-08
7.17512695e-08
3.47528482e-08
6.75705295e-09
-2.97610942e-08
-1.09296443e-07
-1.30199335e-07
-3.05523034e-08
6.74811351e-09
-3.50776174e-08
-4.75139239e-08
-2.13025655e-08
4.70816356e-08
7.24156901e-08
4.6573659e-08
4.57781068e-08
6.31840098e-08
1.74853426e-08
1.43303679e-10
-1.18424599e-08
-7.26556276e-08
-1.23065503e-07
-1.02349465e-07
-6.05899348e-08
-4.59751213e-08
-4.47315637e-08
-4.93154045e-08
)
;
    }
    w_L
    {
        type            cyclic;
        value           nonuniform List<scalar> 
64
(
1.20297213e-07
6.19738432e-08
1.2935843e-07
9.9600233e-08
2.43051909e-08
3.26041909e-08
1.04457451e-07
5.06413963e-08
1.02726184e-08
1.70402365e-08
3.16924511e-08
3.34967702e-08
5.50388433e-08
4.7767707e-08
4.73782576e-08
6.30689722e-08
3.91692757e-08
8.68595897e-08
5.4935707e-08
8.63406081e-08
-3.003235e-08
3.5940095e-08
-2.28085797e-08
5.86011725e-08
-1.01246483e-07
-2.92575925e-08
-1.12404579e-07
-5.36869889e-09
-9.31036679e-08
-1.12980001e-07
-1.26349178e-07
-8.67450778e-08
-9.1128868e-08
-8.20074272e-08
-1.1495383e-07
-1.12529083e-07
-1.11543756e-07
-4.93071824e-09
-1.0708677e-07
-1.02206045e-07
-1.19527702e-07
-3.22559628e-08
-1.25749855e-07
-3.99372188e-08
-7.98592e-08
-1.82845703e-08
-1.15930404e-07
-2.90648186e-08
-2.88711267e-08
1.12039039e-08
-8.12690187e-08
7.05841025e-09
1.14696629e-08
7.60760852e-08
1.53059689e-08
5.81678149e-08
6.59402832e-08
8.24697752e-08
7.40445703e-08
9.71981413e-08
1.24405552e-07
6.98426315e-08
7.78079556e-08
9.75373008e-08
)
;
    }
    w_R
    {
        type            cyclic;
        value           nonuniform List<scalar> 
64
(
-1.20297213e-07
-6.19738432e-08
-1.2935843e-07
-9.9600233e-08
-2.43051909e-08
-3.26041909e-08
-1.04457451e-07
-5.06413963e-08
-1.02726184e-08
-1.70402365e-08
-3.16924511e-08
-3.34967702e-08
-5.50388433e-08
-4.7767707e-08
-4.73782576e-08
-6.30689722e-08
-3.91692757e-08
-8.68595897e-08
-5.4935707e-08
-8.63406081e-08
3.003235e-08
-3.5940095e-08
2.28085797e-08
-5.86011725e-08
1.01246483e-07
2.92575925e-08
1.12404579e-07
5.36869889e-09
9.31036679e-08
1.12980001e-07
1.26349178e-07
8.67450778e-08
9.1128868e-08
8.20074272e-08
1.1495383e-07
1.12529083e-07
1.11543756e-07
4.93071824e-09
1.0708677e-07
1.02206045e-07
1.19527702e-07
3.22559628e-08
1.25749855e-07
3.99372188e-08
7.98592e-08
1.82845703e-08
1.15930404e-07
2.90648186e-08
2.88711267e-08
-1.12039039e-08
8.12690187e-08
-7.05841025e-09
-1.14696629e-08
-7.60760852e-08
-1.53059689e-08
-5.81678149e-08
-6.59402832e-08
-8.24697752e-08
-7.40445703e-08
-9.71981413e-08
-1.24405552e-07
-6.98426315e-08
-7.78079556e-08
-9.75373008e-08
)
;
    }
}


// ************************************************************************* //
