/*--------------------------------*- C++ -*----------------------------------*\
  =========                 |
  \\      /  F ield         | OpenFOAM: The Open Source CFD Toolbox
   \\    /   O peration     | Website:  https://openfoam.org
    \\  /    A nd           | Version:  6
     \\/     M anipulation  |
\*---------------------------------------------------------------------------*/
FoamFile
{
    version     2.0;
    format      ascii;
    class       surfaceScalarField;
    location    "2.74";
    object      phi.particles;
}
// * * * * * * * * * * * * * * * * * * * * * * * * * * * * * * * * * * * * * //

dimensions      [0 3 -1 0 0 0 0];

internalField   nonuniform List<scalar> 
624
(
1.25428737e-08
1.3878495e-08
-2.39468546e-07
2.40467831e-08
5.15413728e-08
-5.99882597e-07
5.12362857e-08
1.39152816e-08
-1.92481739e-07
1.17091572e-08
-4.17920274e-07
-3.26164974e-08
3.50804754e-08
3.08695014e-07
2.1824366e-08
8.40416051e-08
6.28994044e-08
5.52652261e-08
3.42748714e-08
5.20812158e-07
3.09865643e-08
4.75304561e-07
3.77013818e-08
-1.23145174e-08
-1.46239068e-07
-2.93400715e-08
-3.32567087e-08
-2.53270433e-07
2.71312359e-08
-2.55414371e-08
-2.08584139e-07
-4.62635772e-09
-2.8531856e-07
3.6552285e-09
5.29801483e-07
1.05738709e-08
2.93673891e-07
4.55310578e-08
5.84293372e-07
5.63708828e-07
3.04309016e-08
2.37671884e-09
-1.00838474e-07
4.03553543e-08
2.62568608e-08
-5.79429771e-07
4.71547138e-08
-7.81185331e-09
-2.19576683e-08
-5.0626566e-09
-3.50716556e-07
-3.55038782e-08
3.9668948e-08
3.11606389e-07
3.58859038e-08
5.98498392e-08
-2.50089224e-07
5.43017344e-08
2.42690769e-08
4.799889e-07
2.70261757e-08
4.02657014e-07
9.9946617e-08
-7.45366877e-09
1.07785068e-08
5.29079561e-08
-2.01324753e-08
-1.44153876e-07
5.00589531e-08
-1.36356333e-08
-1.35189237e-07
-1.97529097e-08
-2.57213884e-07
-5.27549729e-09
5.67081645e-07
2.32879703e-08
1.50316761e-07
4.23025461e-08
6.12997297e-07
5.09607493e-07
-6.11145049e-10
2.40055409e-08
3.58587942e-09
1.37481976e-08
1.53762316e-08
-4.59666483e-07
3.06169691e-08
-4.12877964e-09
1.41973057e-07
-1.30020582e-08
-1.90147851e-07
-2.79200054e-08
3.10784806e-08
2.70783558e-07
4.8287431e-08
8.56329914e-10
-5.18240406e-07
4.37831375e-08
1.36235992e-08
4.19540529e-07
8.92652459e-09
2.61632072e-07
6.88609532e-08
-2.14202006e-08
1.76869028e-07
6.63510446e-08
-2.56359995e-08
-1.11052328e-07
2.27470274e-08
-2.06367028e-08
6.2179931e-08
-3.26093787e-08
-1.11236171e-07
-1.7392994e-08
5.47324303e-07
4.6666672e-08
-1.95677908e-07
4.81997846e-08
5.65465954e-07
4.01603377e-07
-2.01091081e-08
3.51520056e-08
1.20483739e-07
-2.820339e-08
-1.83232134e-08
-3.51688974e-07
-4.71060373e-09
7.5801552e-09
2.55488793e-07
-4.56716429e-09
-1.7599408e-07
-5.74024923e-09
3.62116636e-09
2.77336853e-07
3.11726563e-08
-4.51728472e-08
-6.08247888e-07
1.7185662e-08
-1.98555622e-08
4.25962696e-07
9.79293314e-09
4.24343567e-08
4.4360135e-08
-4.01813763e-08
3.06910491e-07
2.70564281e-08
-2.45468919e-08
-6.12632202e-08
-1.18205814e-08
-3.37891385e-08
2.07129395e-07
-3.98582526e-08
-2.47718722e-08
-4.36624252e-09
4.79010129e-07
4.24859227e-08
-4.43882067e-07
3.23296399e-08
4.94418768e-07
1.73417448e-07
-3.33272034e-09
1.32049661e-08
2.59738046e-07
-6.59028783e-08
-5.28458273e-08
-2.047465e-07
-3.91075602e-08
4.38072175e-09
3.39342946e-07
-2.39456517e-08
-2.05655388e-07
4.73037962e-08
-1.57059876e-08
2.50690594e-07
6.07129763e-09
-2.18866698e-08
-5.9549603e-07
-1.0397105e-08
-1.66887181e-08
4.33398859e-07
1.50673133e-08
-3.21477495e-07
4.29973489e-08
-4.86781762e-08
4.13677429e-07
-4.37765299e-08
5.22807825e-09
3.87172134e-08
-5.37686545e-08
-1.57220195e-08
3.06583241e-07
-2.66001687e-08
-6.83297365e-08
4.4445726e-08
3.40151581e-07
1.43858643e-08
-4.22149708e-07
2.47225841e-09
4.37568079e-07
-1.46082832e-07
9.0836413e-09
-2.06192367e-09
3.8137539e-07
-6.65751245e-08
-2.91725384e-08
-2.35842268e-08
-3.45968453e-08
-1.01079714e-08
4.38914607e-07
-3.89512726e-08
-1.15492536e-07
5.73695722e-08
-1.50386073e-08
1.32804481e-07
-3.84873256e-08
3.66247586e-09
-5.06877997e-07
-3.87542252e-08
-1.31699966e-08
3.9162301e-07
3.34364671e-09
-5.78792383e-07
5.31865324e-08
-3.94742668e-08
5.02569168e-07
-3.12763219e-08
1.98039766e-08
1.53440358e-07
-3.86048349e-08
-1.0131861e-08
4.22926596e-07
-1.48964889e-08
-1.1248069e-08
4.7561149e-08
1.68090766e-07
-4.06095529e-08
-3.68138118e-07
-1.40607265e-08
3.34014863e-07
-3.87055345e-07
-2.17062929e-08
-2.13298829e-08
4.30297261e-07
-5.16859659e-08
-1.89540767e-08
1.47980582e-07
4.73888908e-09
-2.97926832e-08
4.55033624e-07
-1.56306976e-08
1.04922017e-07
4.51388397e-08
-4.02700079e-09
-1.26455053e-07
-3.27183064e-08
3.41296627e-09
-4.2275246e-07
-1.16076873e-08
-8.12674596e-09
1.77476767e-07
-1.01905753e-08
-5.37214703e-07
-8.99461627e-10
-1.31560766e-08
5.21861956e-07
-2.94966788e-08
1.17462335e-08
2.81802933e-07
-7.61901784e-10
-1.79143084e-08
4.52999618e-07
-9.13813618e-09
1.98807246e-07
-5.95629564e-09
8.54505652e-08
-6.15781863e-08
-3.43609079e-07
1.11446198e-08
6.87160425e-08
-3.60942991e-07
-2.42300777e-08
-4.11336895e-08
4.18748024e-07
-3.95937288e-08
-1.0455912e-08
3.16866793e-07
1.85656299e-08
-2.92000336e-08
3.89465431e-07
-1.02979532e-08
3.01197925e-07
1.26613658e-08
2.9508919e-08
-4.9249386e-07
-1.44880794e-08
1.92482619e-09
-3.71912338e-07
-8.28034715e-09
1.90648658e-08
-1.71712361e-07
-3.42870949e-09
-4.36712834e-07
-3.42270637e-08
2.90877757e-08
4.60887023e-07
-3.28493258e-08
2.15442288e-09
4.05788929e-07
1.00907851e-08
-9.09252979e-09
4.0256047e-07
1.4201559e-08
3.95519311e-07
-1.52821814e-08
2.53299346e-08
-1.2397622e-08
-2.99086262e-07
3.47774435e-09
-1.73606351e-07
-1.93117879e-07
6.55845563e-10
-1.95926034e-08
3.61460956e-07
-2.42360357e-08
3.07820318e-09
4.44642299e-07
-1.26198748e-08
-5.73185797e-09
3.36093774e-07
5.79204075e-09
4.09963513e-07
7.21108091e-09
2.86106865e-08
-6.68367379e-07
-8.97649585e-09
8.14344381e-09
-2.21961595e-07
-4.97849772e-09
2.70823677e-08
-3.99483959e-07
2.40921128e-08
-2.84968886e-07
-3.10905684e-08
2.56567877e-08
3.8444492e-07
-3.17390062e-08
7.59239772e-09
5.03370117e-07
-1.62833719e-08
-4.65124514e-10
3.85927066e-07
2.47699853e-08
5.10683825e-07
1.65827172e-08
-2.098854e-07
1.13833476e-08
-2.17125493e-07
-2.44194034e-08
-2.94094419e-07
-1.1272033e-07
2.45025452e-08
1.89398346e-08
1.46906212e-07
-1.25728878e-08
3.03941925e-08
4.85451495e-07
-5.26421887e-08
4.12241963e-08
2.60132931e-07
2.20473594e-08
4.16589621e-07
-2.03048385e-08
-1.9866796e-08
-5.42099985e-07
-1.65891116e-08
4.73610721e-10
-3.77372674e-08
2.35771226e-08
1.64836042e-08
-4.45137742e-07
-2.32301068e-09
-7.61870726e-08
-8.51106018e-09
-1.80693354e-08
2.57372034e-07
-2.05950588e-08
-1.63066512e-09
5.7161327e-07
-4.20347901e-08
-1.03052043e-08
3.78482042e-07
-7.04268174e-10
5.57107334e-07
8.1223433e-09
-3.87557392e-07
-2.75255467e-08
-3.73787909e-08
-5.93311181e-08
-3.80599199e-07
-5.46840774e-09
2.45649447e-08
-2.0928043e-08
-1.90228414e-07
-1.24052468e-08
2.17897558e-08
4.55866203e-07
-6.8688335e-08
4.17186584e-08
1.03122173e-07
1.11623344e-08
3.31535083e-07
-8.97643248e-09
-5.35256012e-08
-4.16831332e-07
3.31570277e-09
1.29662493e-09
9.38682942e-08
-1.52602649e-08
1.82595856e-08
-2.7804689e-07
-1.17057212e-08
7.21337444e-08
6.25602564e-09
1.51829429e-08
-1.24879392e-07
-1.2617354e-08
4.48198581e-09
5.67903393e-07
-7.22527837e-08
4.50745328e-09
3.5336057e-07
3.66913703e-09
4.94921259e-07
5.28118095e-09
-3.01553194e-07
2.13402844e-09
1.51137167e-07
-3.89022556e-08
-1.57102153e-07
1.66813647e-07
1.74141577e-08
-5.34262385e-08
-4.16697906e-07
-9.67982934e-09
-1.47614644e-09
4.16031294e-07
-7.12619209e-08
-9.83680774e-09
-6.24922176e-08
-1.6475519e-08
2.26912042e-07
9.74686892e-09
-5.88202654e-08
-3.73064274e-07
3.84082551e-08
-2.22177468e-08
2.16859002e-07
-2.01292779e-08
-1.73454584e-08
7.36161333e-09
-3.40081216e-08
1.78111973e-07
-4.59978716e-09
5.13497654e-08
-5.71186313e-07
1.11541621e-09
2.71015348e-08
4.14913789e-07
-8.93424323e-08
1.43247549e-08
3.20510152e-07
1.30178467e-08
2.74718895e-07
1.81577459e-08
-2.5322997e-07
4.04068665e-08
2.6198221e-07
-4.02382881e-08
1.68975415e-07
2.83267886e-07
3.91702493e-09
1.693071e-08
-5.27564923e-07
-6.86910643e-10
-2.91805801e-08
4.05062472e-07
-5.26058925e-08
-2.98461705e-08
-8.31977694e-08
-3.77488128e-08
1.6749695e-07
-1.7258819e-08
-1.62084331e-08
-2.30524365e-07
5.4907774e-08
-7.53612173e-08
2.24499233e-07
1.44523107e-09
-6.01260229e-08
2.1400498e-07
-5.08204009e-08
2.88190746e-07
-2.99850484e-08
4.91006036e-08
-7.13253432e-07
4.32572562e-08
5.89407811e-08
-4.53478654e-08
-6.00467656e-08
3.15416156e-08
2.0804912e-07
3.41850021e-08
8.92909524e-08
-1.44279632e-08
-1.90099971e-07
3.21014147e-08
2.58945535e-07
-1.90900591e-08
2.97001254e-07
4.01584042e-07
-1.59191681e-08
3.28594323e-08
-5.62335306e-07
-7.67489947e-10
-1.17001168e-08
3.68103801e-07
-2.93565464e-08
-4.69752496e-08
-1.5272824e-08
-2.52888679e-08
1.06517687e-07
-1.69924195e-08
4.18119671e-08
-6.81015985e-08
3.70150242e-08
-4.18303491e-08
2.57791099e-07
5.29026032e-08
-7.76269136e-08
3.0443526e-07
-3.31140586e-08
3.88121217e-07
-8.2320582e-08
2.84582078e-08
-5.88628376e-07
1.28145745e-08
6.27252469e-08
-4.59079971e-07
5.74840759e-08
4.84971325e-08
-5.22516056e-08
4.2169874e-08
4.37523485e-08
-3.47598548e-08
2.36296988e-08
1.36881774e-08
2.53384631e-07
2.48073536e-08
3.7065624e-07
5.24932696e-07
-2.23332453e-08
3.72961184e-08
-4.62650481e-07
2.20900571e-08
2.62668751e-08
9.74471958e-08
2.53971018e-08
-2.25743409e-08
-5.35294064e-08
3.89917507e-10
-7.19255043e-09
-2.91238216e-09
4.38240762e-08
4.90738806e-08
3.57357243e-08
1.74391811e-08
3.14961636e-07
4.8221777e-08
-3.27603154e-08
3.85535181e-07
-8.47323928e-09
4.40384272e-07
-6.26527649e-08
3.36696088e-10
-4.08814844e-07
-4.03492689e-08
3.26615227e-08
-5.31748439e-07
4.91034679e-08
2.53720375e-08
-1.95790459e-07
3.28066607e-08
-5.47248438e-08
-2.46438215e-08
2.42813839e-07
-3.44569227e-09
3.26185455e-07
3.14035089e-08
4.24289251e-07
5.81110649e-07
-2.89567045e-08
3.80709293e-08
1.86529685e-08
5.80334399e-08
7.98970501e-08
4.48072081e-09
1.50018302e-08
-2.61841936e-08
3.47336993e-08
1.26646472e-08
7.49547659e-08
3.7855682e-08
1.02813442e-08
6.86648469e-09
-4.69233489e-08
-1.24647104e-08
-6.4903235e-08
-2.61427494e-08
1.4817356e-08
-2.85520119e-08
1.4980736e-08
-2.61570721e-08
5.79152352e-09
4.12635732e-08
)
;

boundaryField
{
    vin_DB
    {
        type            cyclic;
        value           nonuniform List<scalar> 
16
(
3.49687974e-07
-1.93596693e-07
2.72220201e-07
-4.21127986e-07
3.46401503e-07
-2.39242809e-07
4.28496647e-07
-3.33993775e-07
1.98766384e-07
-4.81318175e-07
1.81503706e-07
-4.99090672e-07
2.12995077e-07
-4.75141871e-07
2.00646696e-07
-5.87880829e-07
)
;
    }
    pout
    {
        type            cyclic;
        value           nonuniform List<scalar> 
16
(
-3.49687974e-07
1.93596693e-07
-2.72220201e-07
4.21127986e-07
-3.46401503e-07
2.39242809e-07
-4.28496647e-07
3.33993775e-07
-1.98766384e-07
4.81318175e-07
-1.81503706e-07
4.99090672e-07
-2.12995077e-07
4.75141871e-07
-2.00646696e-07
5.87880829e-07
)
;
    }
    w_F
    {
        type            cyclic;
        value           nonuniform List<scalar> 
64
(
1.26135427e-08
1.10030989e-08
-3.85849421e-09
-2.07296932e-08
-1.4659385e-08
-1.29608698e-08
-3.24043195e-09
2.22204525e-08
1.87431567e-08
4.49448827e-09
3.24479818e-09
-5.13212315e-09
-4.82577937e-08
-5.7365164e-09
9.20057819e-09
7.4130733e-09
5.45412347e-08
1.83933137e-08
-3.06684779e-08
-3.18388189e-08
6.00375385e-09
-4.97303982e-09
-4.80701063e-09
1.0898199e-08
1.70665342e-08
9.45987453e-10
1.23680423e-08
-5.75374842e-09
-6.00665527e-08
-5.29786288e-08
-1.19102974e-08
5.91309776e-08
2.95697379e-08
1.27493319e-08
3.27719716e-09
-2.18291812e-08
-3.1142404e-08
-2.24929121e-08
1.98919137e-09
2.03556112e-08
1.98133801e-08
4.2394323e-09
1.97380933e-08
3.04884404e-08
-2.29169653e-08
-4.96975437e-08
-1.78721219e-08
3.64708208e-08
2.07735843e-08
1.59767262e-08
1.0029465e-08
1.44905458e-08
2.09000257e-08
1.32121333e-08
3.13415193e-09
-1.20050514e-09
8.08509244e-09
5.84973717e-09
1.5459057e-08
1.56081599e-08
-9.0497399e-09
-2.274115e-08
-1.66138268e-08
1.29163017e-10
)
;
    }
    w_B
    {
        type            cyclic;
        value           nonuniform List<scalar> 
64
(
-1.26135427e-08
-1.10030989e-08
3.85849421e-09
2.07296932e-08
1.4659385e-08
1.29608698e-08
3.24043195e-09
-2.22204525e-08
-1.87431567e-08
-4.49448827e-09
-3.24479818e-09
5.13212315e-09
4.82577937e-08
5.7365164e-09
-9.20057819e-09
-7.4130733e-09
-5.45412347e-08
-1.83933137e-08
3.06684779e-08
3.18388189e-08
-6.00375385e-09
4.97303982e-09
4.80701063e-09
-1.0898199e-08
-1.70665342e-08
-9.45987453e-10
-1.23680423e-08
5.75374842e-09
6.00665527e-08
5.29786288e-08
1.19102974e-08
-5.91309776e-08
-2.95697379e-08
-1.27493319e-08
-3.27719716e-09
2.18291812e-08
3.1142404e-08
2.24929121e-08
-1.98919137e-09
-2.03556112e-08
-1.98133801e-08
-4.2394323e-09
-1.97380933e-08
-3.04884404e-08
2.29169653e-08
4.96975437e-08
1.78721219e-08
-3.64708208e-08
-2.07735843e-08
-1.59767262e-08
-1.0029465e-08
-1.44905458e-08
-2.09000257e-08
-1.32121333e-08
-3.13415193e-09
1.20050514e-09
-8.08509244e-09
-5.84973717e-09
-1.5459057e-08
-1.56081599e-08
9.0497399e-09
2.274115e-08
1.66138268e-08
-1.29163017e-10
)
;
    }
    w_L
    {
        type            cyclic;
        value           nonuniform List<scalar> 
64
(
7.66639851e-08
2.88579071e-08
1.06938438e-07
6.26646119e-08
4.020558e-08
1.06967209e-08
1.09579155e-07
3.50875206e-08
1.706511e-08
-1.01701272e-08
3.52250465e-08
9.85521981e-09
1.17938287e-08
-1.24051002e-09
1.19474574e-08
9.32594496e-09
2.07063516e-08
4.04480147e-08
3.19343329e-08
4.42429499e-08
2.22813663e-08
4.50136213e-08
2.83239476e-08
6.67629997e-08
1.59189055e-09
2.71291303e-08
-5.45754639e-09
3.7293864e-08
-5.24461578e-09
-3.79904242e-08
-3.19195423e-08
-3.96063547e-08
-2.23648798e-08
-3.36755522e-08
-4.8697712e-08
-6.26507995e-08
-4.44089757e-08
1.0408775e-08
-5.303136e-08
-5.42796491e-08
-5.71997674e-08
-1.98005219e-08
-6.95016797e-08
-2.9610223e-08
-5.64688508e-08
-3.41883091e-08
-9.63176796e-08
-4.80098172e-08
-4.2712845e-08
-4.96332992e-08
-1.1143235e-07
-4.87039137e-08
-2.60865089e-08
1.42500169e-08
-1.74116298e-08
-5.52545864e-09
1.15566959e-08
2.56298321e-08
4.15116e-08
2.93825415e-08
7.37622197e-08
2.50273911e-08
4.86439666e-08
3.45877784e-08
)
;
    }
    w_R
    {
        type            cyclic;
        value           nonuniform List<scalar> 
64
(
-7.66639851e-08
-2.88579071e-08
-1.06938438e-07
-6.26646119e-08
-4.020558e-08
-1.06967209e-08
-1.09579155e-07
-3.50875206e-08
-1.706511e-08
1.01701272e-08
-3.52250465e-08
-9.85521981e-09
-1.17938287e-08
1.24051002e-09
-1.19474574e-08
-9.32594496e-09
-2.07063516e-08
-4.04480147e-08
-3.19343329e-08
-4.42429499e-08
-2.22813663e-08
-4.50136213e-08
-2.83239476e-08
-6.67629997e-08
-1.59189055e-09
-2.71291303e-08
5.45754639e-09
-3.7293864e-08
5.24461578e-09
3.79904242e-08
3.19195423e-08
3.96063547e-08
2.23648798e-08
3.36755522e-08
4.8697712e-08
6.26507995e-08
4.44089757e-08
-1.0408775e-08
5.303136e-08
5.42796491e-08
5.71997674e-08
1.98005219e-08
6.95016797e-08
2.9610223e-08
5.64688508e-08
3.41883091e-08
9.63176796e-08
4.80098172e-08
4.2712845e-08
4.96332992e-08
1.1143235e-07
4.87039137e-08
2.60865089e-08
-1.42500169e-08
1.74116298e-08
5.52545864e-09
-1.15566959e-08
-2.56298321e-08
-4.15116e-08
-2.93825415e-08
-7.37622197e-08
-2.50273911e-08
-4.86439666e-08
-3.45877784e-08
)
;
    }
}


// ************************************************************************* //
