/*--------------------------------*- C++ -*----------------------------------*\
  =========                 |
  \\      /  F ield         | OpenFOAM: The Open Source CFD Toolbox
   \\    /   O peration     | Website:  https://openfoam.org
    \\  /    A nd           | Version:  6
     \\/     M anipulation  |
\*---------------------------------------------------------------------------*/
FoamFile
{
    version     2.0;
    format      ascii;
    class       surfaceScalarField;
    location    "2.74";
    object      phi.air;
}
// * * * * * * * * * * * * * * * * * * * * * * * * * * * * * * * * * * * * * //

dimensions      [0 3 -1 0 0 0 0];

internalField   nonuniform List<scalar> 
624
(
-5.37412158e-08
-4.85771217e-08
2.27390949e-07
9.75533588e-08
3.25250763e-08
-3.6537047e-07
-9.02045687e-09
-6.08348005e-08
2.59007127e-07
5.77604687e-09
-1.66187102e-07
-1.12371422e-07
7.88869161e-08
7.59485887e-07
1.07751258e-07
1.38365155e-07
2.58963523e-07
1.17138856e-08
5.06363056e-08
9.90174453e-07
4.86925407e-08
8.21109085e-07
7.13522936e-09
-4.72002611e-08
2.40766763e-07
-1.60935728e-08
-6.40198898e-08
1.56418398e-08
1.42129825e-08
-2.66794993e-08
7.66075981e-08
-1.61215031e-08
-7.27042956e-08
-5.36096838e-08
1.05000611e-06
8.25488354e-08
5.84170244e-07
-1.13934361e-08
1.11906572e-06
9.56651575e-07
2.29804176e-08
-9.70722552e-08
3.71336282e-07
6.8973214e-08
-5.63106332e-08
-3.30025308e-07
4.52561525e-08
-1.24408037e-07
4.53724061e-07
-9.49742016e-08
-2.050066e-08
-1.08206669e-07
1.23724519e-07
6.83157112e-07
1.18740847e-07
1.20626305e-07
-9.56852796e-08
1.89283191e-08
9.51024809e-08
8.68552188e-07
9.77532692e-08
6.35111571e-07
4.24752242e-08
-7.62204432e-08
4.75177293e-07
1.06148318e-07
-5.92034425e-08
1.2969706e-07
4.95294025e-08
-6.44469311e-08
2.70718906e-07
-7.53725182e-08
2.5686412e-08
-6.60736713e-08
1.02045236e-06
1.02751103e-07
3.28382717e-07
5.91675479e-09
1.06540354e-06
7.91626222e-07
1.10922794e-08
-5.65919416e-08
4.92210075e-07
2.39021727e-08
-6.82600644e-08
-1.84302186e-07
1.16347151e-08
-9.82804786e-08
6.28109307e-07
-1.23760071e-07
1.60346661e-07
-7.09964187e-08
1.14494089e-07
6.11842386e-07
9.97276559e-08
5.62707831e-08
-3.45059824e-07
2.72012984e-09
9.99606002e-08
7.72849831e-07
1.04282104e-07
4.22548748e-07
3.2115236e-08
-1.01093752e-07
6.67671221e-07
1.13865081e-07
-8.58835683e-08
1.82916924e-07
1.41628262e-08
-1.0267376e-07
5.48076466e-07
-1.15766706e-07
2.00720126e-07
-8.59180922e-08
9.63393671e-07
1.2294334e-07
-3.40096239e-08
1.13401159e-08
9.88958538e-07
5.89093589e-07
3.16626823e-09
-2.50519175e-08
6.61751645e-07
-3.65542953e-08
-5.93034916e-08
-8.92326821e-09
-7.02176972e-08
-5.61739293e-08
7.99183056e-07
-7.47771848e-08
1.59966645e-07
-5.15449453e-09
6.72349404e-08
5.87173871e-07
3.78936023e-08
-4.84881306e-09
-4.24144572e-07
-5.02477002e-08
3.88992018e-08
7.69829275e-07
8.47342443e-08
2.04054196e-07
6.11186651e-08
-1.2380604e-07
8.33915132e-07
1.67395504e-08
-8.33635202e-08
2.88780379e-07
-5.90342571e-08
-1.05345136e-07
7.54775781e-07
-1.18394226e-07
2.83041941e-07
-2.10393682e-08
8.38706742e-07
7.0741781e-08
-2.66939342e-07
-4.42908474e-08
9.0276463e-07
3.43496603e-07
4.9810186e-08
-5.55270777e-08
8.05781431e-07
-1.07328225e-07
-7.64242462e-08
2.46787046e-07
-7.21300447e-08
-4.69170442e-08
9.01253313e-07
-1.01196081e-07
1.94050002e-07
9.05565134e-08
4.44630236e-08
5.04944617e-07
-2.22970656e-08
8.14271005e-11
-3.92550809e-07
-8.88004465e-08
3.24317652e-08
7.59864202e-07
8.44935519e-08
-1.0459736e-07
1.01005775e-07
-1.38675157e-07
9.61596303e-07
-8.39147113e-08
-4.14801901e-08
4.95683213e-07
-9.67588768e-08
-8.57733938e-08
8.72024056e-07
-1.00732607e-07
3.06129811e-07
8.23026897e-08
6.18238114e-07
-1.50316663e-09
-2.63052877e-07
-8.16599339e-08
7.97028505e-07
6.72542604e-08
6.32554855e-08
-7.94294326e-08
8.76142954e-07
-1.03422175e-07
-4.88417476e-08
5.03263458e-07
9.63572337e-09
-6.53810887e-08
9.44523296e-07
-1.17612966e-07
3.97753043e-07
1.15520232e-07
5.94918264e-08
3.11302736e-07
-7.8172125e-08
1.87893705e-08
-2.77761946e-07
-5.17522802e-08
4.25996362e-08
6.34979487e-07
7.55512961e-08
-3.56289057e-07
1.03301275e-07
-1.3013736e-07
1.00325065e-06
-6.06975533e-08
-3.32626015e-08
6.94736145e-07
3.97009174e-09
-9.23309212e-08
9.27806401e-07
-9.90287559e-08
4.77935025e-07
8.28035902e-08
3.87247534e-07
-6.19934537e-08
-2.05270176e-07
-2.53800006e-08
5.76921815e-07
-1.59754508e-07
3.36567824e-08
-1.00400905e-07
8.77731497e-07
-1.04989463e-07
-4.23559435e-08
7.12348239e-07
1.20339492e-07
-1.04411941e-07
9.01366942e-07
-2.76579558e-08
6.47399753e-07
1.03639194e-07
7.77532615e-08
3.88036694e-08
-8.97101456e-08
2.43320128e-08
-1.59780672e-07
6.53938202e-08
6.60542374e-08
3.50091923e-07
6.5716884e-09
-3.0913201e-07
4.84555267e-08
-6.43410842e-08
9.6582055e-07
-8.00193534e-08
-2.75804251e-08
8.58345658e-07
1.22805323e-07
-1.04632985e-07
8.88435842e-07
-3.83377575e-08
7.34193651e-07
1.73863428e-08
2.64704369e-07
-1.02207468e-07
-1.54461532e-07
8.48257779e-08
2.44131008e-07
-1.40551715e-07
5.22904065e-08
-9.3139019e-08
8.2026581e-07
-1.31207555e-07
-6.82895984e-10
8.74962403e-07
1.33386379e-07
-1.04108914e-07
7.87167163e-07
1.78758273e-08
8.46895329e-07
8.24864749e-08
7.82567103e-08
-2.88552831e-07
-1.04929842e-07
-1.5854425e-08
1.87566204e-08
1.06642979e-07
8.79114346e-08
1.98807958e-08
-3.07957695e-08
-5.95925394e-08
4.08510202e-08
1.00337777e-08
8.63662489e-07
-1.23532388e-07
-4.70172067e-10
9.90888988e-07
1.32170267e-07
-6.99067095e-08
7.94818465e-07
1.46994979e-08
9.37281786e-07
1.99884605e-08
1.77744034e-07
-7.82464543e-08
-7.08186815e-08
9.90254181e-08
8.68432715e-09
4.08454297e-08
8.22284262e-08
8.0228081e-09
6.56140303e-07
-1.07121932e-07
6.08952738e-08
9.39447174e-07
6.69832868e-08
-1.59844377e-08
6.47185147e-07
6.94557187e-08
9.16954595e-07
6.56239922e-08
1.17403657e-09
-4.28411961e-07
-1.13561998e-07
-5.40730589e-08
2.68652017e-07
9.99064405e-08
3.84405612e-08
-2.09192105e-07
-4.25043482e-08
2.0248448e-07
4.8626769e-08
-1.04704875e-08
7.1370533e-07
-1.07924975e-07
4.16849136e-08
1.03903282e-06
5.59382839e-08
-3.36096544e-08
7.08382573e-07
3.12720876e-08
1.0315311e-06
9.40145043e-08
-2.19747875e-08
-6.46035621e-08
1.47792858e-07
3.5974394e-08
-9.61535391e-08
2.31159266e-07
1.07686898e-07
1.02009981e-07
3.18064801e-07
-6.49478836e-08
1.07773476e-07
9.10206886e-07
-6.77384455e-09
9.21546729e-08
4.81569288e-07
1.06364444e-07
8.39261667e-07
2.24394658e-09
-8.96789425e-08
-2.68423451e-07
-3.10949614e-08
-6.08032365e-08
4.46797542e-07
3.39851404e-08
-2.09395832e-08
-1.66666375e-07
-7.62176157e-08
4.01755679e-07
6.83004065e-08
1.05044429e-09
4.5842775e-07
-6.16704206e-08
7.12771753e-08
1.02840892e-06
-1.54830256e-08
7.14114131e-09
6.47067184e-07
6.6068141e-08
9.84966838e-07
8.3478723e-08
-1.65506927e-07
-7.7918376e-08
4.28191899e-07
-2.43007826e-08
-9.28162161e-08
4.33279383e-07
1.1168056e-07
7.57623295e-08
-3.35418641e-08
-3.5804784e-08
1.08219304e-07
8.27641179e-07
-5.70121673e-08
1.4599484e-07
2.63476952e-07
1.05041141e-07
6.80673099e-07
1.41971684e-08
-1.43988304e-07
-1.21027892e-07
5.51276972e-08
-7.79270771e-08
5.76891961e-07
-7.67928464e-08
-6.32987579e-08
1.32805078e-07
-1.02966527e-07
5.52531204e-07
9.5760662e-08
1.04930415e-07
3.02801586e-08
-7.42161025e-09
1.10755052e-07
9.44954878e-07
-9.59770556e-08
9.35654921e-08
5.96502369e-07
1.2356665e-07
8.09565198e-07
2.15130179e-08
-6.00720617e-08
4.83492809e-08
6.13474227e-07
-8.87887659e-08
2.16976985e-07
6.21940881e-07
5.63478491e-08
2.35069751e-08
-2.27411059e-07
-2.23359929e-08
8.09318518e-08
7.53510531e-07
-6.62697978e-08
1.06099849e-07
9.43426891e-08
6.84916545e-08
5.34414869e-07
-5.31173102e-09
-1.49299836e-07
1.57615644e-08
9.61095067e-08
-1.39239547e-07
6.81736848e-07
-8.18404424e-08
-1.15752526e-07
4.91229481e-07
-1.48114055e-07
6.92206306e-07
3.85566909e-08
1.4767615e-07
-3.6486164e-07
3.92663133e-08
1.52401329e-07
6.74906147e-07
-1.32319453e-07
1.16326232e-07
5.49831671e-07
1.40917132e-07
5.46324045e-07
-7.86617554e-09
1.20090672e-07
9.47098811e-08
7.35159532e-07
-8.85165373e-08
6.25610873e-07
8.01684725e-07
-2.34287503e-08
8.87294664e-08
-3.27824559e-07
2.16717349e-09
2.78527672e-08
7.19587808e-07
-4.77146768e-08
4.03737441e-08
8.8516474e-08
3.09510958e-08
4.30535286e-07
-1.12519264e-07
-6.25856144e-08
2.62081832e-07
9.05904887e-08
-1.96256291e-07
6.98682455e-07
-1.45973671e-09
-1.56891811e-07
7.59208322e-07
-1.28846539e-07
8.21593452e-07
-1.05468428e-07
9.93878905e-08
-5.03732885e-07
8.54848557e-08
1.88449226e-07
1.6203286e-07
-5.49558562e-08
1.20329544e-07
4.38167728e-07
1.23950711e-07
3.45289478e-07
-1.12399523e-07
3.40759319e-07
5.63045657e-08
7.51611456e-07
-2.67248833e-09
8.32967199e-07
9.66112425e-07
-7.75748593e-08
6.09216155e-08
-3.31151121e-07
1.41684673e-08
5.18323185e-08
5.87599806e-07
-3.46257038e-08
-3.57339449e-09
1.49507074e-07
4.01371937e-08
3.02315642e-07
-9.52915024e-08
2.92581064e-08
4.49034751e-07
4.53697286e-08
-1.28046933e-07
7.2306894e-07
6.13625327e-08
-1.39978513e-07
8.65127893e-07
-6.58222582e-08
8.95026458e-07
-1.60253376e-07
5.16918998e-08
-3.62343603e-07
3.6430289e-08
1.51727717e-07
-2.61028372e-07
7.84084858e-08
1.18288067e-07
1.5861666e-07
8.83037554e-08
2.54613506e-07
-1.31268635e-07
5.93493623e-07
3.54313584e-08
7.38111314e-07
3.46609136e-08
9.34241877e-07
1.06646644e-06
-1.13160695e-07
3.14852076e-08
-2.19622233e-07
5.19642383e-08
1.21693231e-07
2.60642972e-07
1.18962776e-08
2.84698973e-08
1.29924387e-07
6.04491053e-08
1.52090425e-07
-5.46329831e-08
4.15577993e-08
5.71054714e-07
5.13755677e-08
5.59860747e-09
7.16969233e-07
2.1391453e-08
-3.63366511e-08
9.46054208e-07
-3.25536428e-08
9.15780608e-07
-8.82549999e-08
1.89019411e-08
-1.79293796e-07
-3.04753925e-08
5.03988675e-08
-3.57270375e-07
2.87025557e-08
3.98849889e-08
1.80198234e-08
6.89024075e-08
1.17461621e-07
-8.9453874e-08
8.06082373e-07
1.78930936e-08
7.55987259e-07
2.40951023e-09
1.01738401e-06
1.08130894e-06
-1.17330521e-07
2.06852464e-08
7.92121468e-08
1.30946173e-07
3.93056695e-08
1.21191041e-08
7.06073014e-08
-9.97779044e-08
3.97497072e-08
8.49771305e-08
1.10544586e-07
-1.15591432e-08
2.07076556e-08
-1.70545054e-08
-5.55264989e-08
-3.75322296e-09
-5.36566098e-08
-4.48446298e-08
-2.45403792e-08
-3.37934075e-08
4.14806066e-08
-8.95877369e-08
5.80722222e-08
-1.72870039e-08
)
;

boundaryField
{
    vin_DB
    {
        type            cyclic;
        value           nonuniform List<scalar> 
16
(
1.215157e-08
-7.16055921e-07
-2.30276831e-09
-9.84068865e-07
1.48436534e-07
-5.60318638e-07
2.04636143e-07
-7.13958104e-07
-1.03821274e-07
-1.01663642e-06
-2.91810091e-08
-1.09432885e-06
2.75272007e-08
-9.12492865e-07
2.36267557e-08
-1.0599783e-06
)
;
    }
    pout
    {
        type            cyclic;
        value           nonuniform List<scalar> 
16
(
-1.215157e-08
7.16055921e-07
2.30276831e-09
9.84068865e-07
-1.48436534e-07
5.60318638e-07
-2.04636143e-07
7.13958104e-07
1.03821274e-07
1.01663642e-06
2.91810091e-08
1.09432885e-06
-2.75272007e-08
9.12492865e-07
-2.36267557e-08
1.0599783e-06
)
;
    }
    w_F
    {
        type            cyclic;
        value           nonuniform List<scalar> 
64
(
-3.9932612e-08
-7.26678708e-08
-7.99511144e-08
-1.00313385e-07
-1.13448618e-07
-1.06422188e-07
-5.18302852e-08
-7.2974404e-11
-1.83203971e-08
3.552282e-08
9.57866478e-08
7.81627174e-08
2.77552215e-08
3.22728616e-08
1.91901508e-08
2.59323335e-09
5.79579945e-08
-5.44101223e-08
-1.20089253e-07
-9.09539448e-08
-4.1461114e-08
-6.1154172e-08
-4.59086711e-08
7.45278334e-10
4.80078686e-08
8.83804298e-08
1.24216994e-07
8.4297715e-08
3.38913447e-09
1.23526784e-08
8.98174625e-08
1.52163975e-07
-2.78018972e-08
-7.96178778e-08
-8.7175706e-08
-9.84386545e-08
-1.03017818e-07
-1.04043332e-07
-8.4752718e-08
-4.61559302e-08
-1.24973713e-08
3.56112002e-08
1.27083517e-07
1.49326533e-07
4.11160103e-08
1.82121527e-09
4.53973346e-08
4.96946822e-08
2.14148403e-08
-5.84742647e-08
-8.48471881e-08
-5.85690503e-08
-6.10217593e-08
-7.85731319e-08
-2.12857588e-08
2.76574885e-11
1.24691242e-08
8.14897922e-08
1.36980583e-07
1.14968142e-07
7.16428382e-08
5.75878723e-08
5.65693713e-08
5.95091511e-08
)
;
    }
    w_B
    {
        type            cyclic;
        value           nonuniform List<scalar> 
64
(
3.9932612e-08
7.26678708e-08
7.99511144e-08
1.00313385e-07
1.13448618e-07
1.06422188e-07
5.18302852e-08
7.2974404e-11
1.83203971e-08
-3.552282e-08
-9.57866478e-08
-7.81627174e-08
-2.77552215e-08
-3.22728616e-08
-1.91901508e-08
-2.59323335e-09
-5.79579945e-08
5.44101223e-08
1.20089253e-07
9.09539448e-08
4.1461114e-08
6.1154172e-08
4.59086711e-08
-7.45278334e-10
-4.80078686e-08
-8.83804298e-08
-1.24216994e-07
-8.4297715e-08
-3.38913447e-09
-1.23526784e-08
-8.98174625e-08
-1.52163975e-07
2.78018972e-08
7.96178778e-08
8.7175706e-08
9.84386545e-08
1.03017818e-07
1.04043332e-07
8.4752718e-08
4.61559302e-08
1.24973713e-08
-3.56112002e-08
-1.27083517e-07
-1.49326533e-07
-4.11160103e-08
-1.82121527e-09
-4.53973346e-08
-4.96946822e-08
-2.14148403e-08
5.84742647e-08
8.48471881e-08
5.85690503e-08
6.10217593e-08
7.85731319e-08
2.12857588e-08
-2.76574885e-11
-1.24691242e-08
-8.14897922e-08
-1.36980583e-07
-1.14968142e-07
-7.16428382e-08
-5.75878723e-08
-5.65693713e-08
-5.95091511e-08
)
;
    }
    w_L
    {
        type            cyclic;
        value           nonuniform List<scalar> 
64
(
1.29758199e-07
6.65770622e-08
1.34689225e-07
1.04519664e-07
2.17663107e-08
3.60343345e-08
1.03564163e-07
5.28443556e-08
9.44529172e-09
2.20804354e-08
3.12243106e-08
3.71204416e-08
6.10357325e-08
5.80929961e-08
5.23415772e-08
7.31321926e-08
4.20967057e-08
9.71535823e-08
5.86231595e-08
9.53801741e-08
-3.71060587e-08
3.37779527e-08
-3.01171921e-08
5.66628481e-08
-1.1415656e-07
-4.43600351e-08
-1.25766776e-07
-1.62323148e-08
-1.04793252e-07
-1.30890124e-07
-1.3888109e-07
-9.80117439e-08
-1.00640304e-07
-9.16757257e-08
-1.24214837e-07
-1.24704466e-07
-1.21893195e-07
-7.27545012e-09
-1.15014242e-07
-1.1204089e-07
-1.32029266e-07
-3.40394323e-08
-1.35918878e-07
-4.16126407e-08
-8.49757182e-08
-1.58110584e-08
-1.20382429e-07
-2.60432003e-08
-2.56536249e-08
1.94810973e-08
-7.36104312e-08
1.4459053e-08
2.04793548e-08
8.39407092e-08
2.27467322e-08
6.58719421e-08
7.89005199e-08
8.98386871e-08
8.15988521e-08
1.05499672e-07
1.37331502e-07
7.5911002e-08
8.52697172e-08
1.05619694e-07
)
;
    }
    w_R
    {
        type            cyclic;
        value           nonuniform List<scalar> 
64
(
-1.29758199e-07
-6.65770622e-08
-1.34689225e-07
-1.04519664e-07
-2.17663107e-08
-3.60343345e-08
-1.03564163e-07
-5.28443556e-08
-9.44529172e-09
-2.20804354e-08
-3.12243106e-08
-3.71204416e-08
-6.10357325e-08
-5.80929961e-08
-5.23415772e-08
-7.31321926e-08
-4.20967057e-08
-9.71535823e-08
-5.86231595e-08
-9.53801741e-08
3.71060587e-08
-3.37779527e-08
3.01171921e-08
-5.66628481e-08
1.1415656e-07
4.43600351e-08
1.25766776e-07
1.62323148e-08
1.04793252e-07
1.30890124e-07
1.3888109e-07
9.80117439e-08
1.00640304e-07
9.16757257e-08
1.24214837e-07
1.24704466e-07
1.21893195e-07
7.27545012e-09
1.15014242e-07
1.1204089e-07
1.32029266e-07
3.40394323e-08
1.35918878e-07
4.16126407e-08
8.49757182e-08
1.58110584e-08
1.20382429e-07
2.60432003e-08
2.56536249e-08
-1.94810973e-08
7.36104312e-08
-1.4459053e-08
-2.04793548e-08
-8.39407092e-08
-2.27467322e-08
-6.58719421e-08
-7.89005199e-08
-8.98386871e-08
-8.15988521e-08
-1.05499672e-07
-1.37331502e-07
-7.5911002e-08
-8.52697172e-08
-1.05619694e-07
)
;
    }
}


// ************************************************************************* //
