/*--------------------------------*- C++ -*----------------------------------*\
  =========                 |
  \\      /  F ield         | OpenFOAM: The Open Source CFD Toolbox
   \\    /   O peration     | Website:  https://openfoam.org
    \\  /    A nd           | Version:  6
     \\/     M anipulation  |
\*---------------------------------------------------------------------------*/
FoamFile
{
    version     2.0;
    format      ascii;
    class       volScalarField;
    location    "2.74";
    object      Theta.particles;
}
// * * * * * * * * * * * * * * * * * * * * * * * * * * * * * * * * * * * * * //

dimensions      [0 2 -2 0 0 0 0];

internalField   nonuniform List<scalar> 
256
(
0.000273990437
0.000163922822
0.000259868988
0.000159677333
0.000328455921
0.000181029347
0.000340031956
0.000278055453
0.000207109991
0.000186500854
0.000149939174
0.000142342155
0.00035946901
0.000234852313
0.000375254233
0.000301743143
0.000323411624
0.000175657425
0.000324521151
0.000176177678
0.00027279312
0.000111753962
0.000286919875
0.000201958358
0.000297453587
0.000192504954
0.00022816098
0.000154643566
0.000323865104
0.000169541459
0.000329579868
0.000232083908
0.000303980607
0.000190395092
0.000299412753
0.000271755992
0.000231436887
0.00012778809
0.000241939316
0.000130808999
0.000308380047
0.000193186364
0.000312089119
0.000227203496
0.000285758166
0.000106482092
0.000285389337
0.00016738183
0.000329652323
0.000193186513
0.000325216619
0.000215664332
0.000224729429
0.000139843868
0.000235487305
0.000106370679
0.000324546272
0.00021055258
0.000329777727
0.000207274842
0.000265436187
0.00013199187
0.000274022041
0.000110043952
0.00035584177
0.000256512281
0.000360621515
0.000219384862
0.000199781047
0.000135607414
0.000229340653
0.000151141495
0.000350497551
0.000257454866
0.000363620639
0.000209546582
0.000218074526
0.000128983807
0.000260213186
0.000146184367
0.000345214951
0.000346473435
0.000351674707
0.000309125987
0.00015684867
0.000165147533
0.000210431068
0.000178251035
0.000345982749
0.000354132595
0.000352626941
0.000281078478
0.000173791997
0.000121896353
0.000222245127
0.000178808213
0.000316448935
0.00035492135
0.000323195339
0.000363400792
0.000117507689
0.000181159331
0.000145542429
0.000158890893
0.000320482172
0.000365735675
0.000321564342
0.000361117595
0.000145048611
0.000134915784
0.000134995946
0.000159912375
0.000283775645
0.000367160072
0.0002763636
0.00035171002
0.000152403278
0.000194378701
0.000129841278
0.000192412588
0.000286309163
0.000382731755
0.000271879865
0.000346956031
0.000121885865
0.000152167224
0.000130841158
0.000173995476
0.00024848847
0.000345362126
0.000245314109
0.000339715177
0.000151290521
0.000314009424
0.000155886341
0.000301943993
0.000253765791
0.00036823539
0.000244719528
0.000344168635
0.000133799977
0.000178362597
0.000153984686
0.000168408118
0.000164977513
0.000302511334
0.000187977846
0.000310715317
0.000190825735
0.00032002278
0.00013875438
0.000314711816
0.000193321137
0.000324649952
0.00020157878
0.000316483489
0.000142864861
0.000294042009
0.000158706978
0.000267989445
9.81808644e-05
0.000260771702
0.000130300256
0.000254823555
0.00020348542
0.000303928868
0.000238094086
0.000303082902
0.000112690711
0.000279681474
0.000173964307
0.000257621991
0.000174597093
0.000297772064
0.000215486935
0.000297500518
0.000137785295
0.000231407596
0.000110503934
0.000211675785
0.000201514461
0.000312950298
0.000302641403
0.000321980438
0.000137683675
0.000229707378
0.000165557848
0.000189824714
0.000184862517
0.000303979313
0.000290828654
0.000311151068
0.000153835529
0.000225010884
0.000126888161
0.000200405961
0.000306583373
0.000302978252
0.000328834279
0.000339227115
0.000158977559
0.00014411689
0.000170759135
0.000180783864
0.000315142625
0.000314781453
0.000317483879
0.000351033271
0.000157109973
0.000199552925
0.000131699451
0.000171361181
0.00034349183
0.000307002238
0.000360505606
0.000354971041
0.000168046077
0.000158088646
0.000163214782
0.000183380637
0.000377506027
0.000322223903
0.00035335468
0.000374096873
0.000186759143
0.000135421989
0.000138983701
0.000128439832
0.000342830109
0.000309786224
0.000376730166
0.000337062288
0.000171450877
0.000149225092
0.000155990371
0.000143080871
0.000371244356
0.00032362566
0.000393391367
0.000356186416
0.000177301988
0.000143970513
0.000159071992
0.000137545032
0.00034531012
0.000255483617
0.000366560019
0.000306559101
0.000172404243
0.000138952551
0.000171883266
0.00013068853
0.00037016319
0.000276863262
0.000397054895
0.000327105495
)
;

boundaryField
{
    vin_DB
    {
        type            cyclic;
    }
    pout
    {
        type            cyclic;
    }
    w_F
    {
        type            cyclic;
    }
    w_B
    {
        type            cyclic;
    }
    w_L
    {
        type            cyclic;
    }
    w_R
    {
        type            cyclic;
    }
}


// ************************************************************************* //
