/*--------------------------------*- C++ -*----------------------------------*\
  =========                 |
  \\      /  F ield         | OpenFOAM: The Open Source CFD Toolbox
   \\    /   O peration     | Website:  https://openfoam.org
    \\  /    A nd           | Version:  6
     \\/     M anipulation  |
\*---------------------------------------------------------------------------*/
FoamFile
{
    version     2.0;
    format      ascii;
    class       volVectorField;
    location    "2.74";
    object      U;
}
// * * * * * * * * * * * * * * * * * * * * * * * * * * * * * * * * * * * * * //

dimensions      [0 1 -1 0 0 0 0];

internalField   nonuniform List<vector> 
256
(
(0.015838563 -0.00240654941 0.00512019043)
(-0.00614733038 -0.00426989074 -0.103780315)
(0.0148940273 -0.0044226052 0.0102106244)
(0.0159308143 -0.00393811515 -0.0517063926)
(-0.00739394367 0.00905001986 0.177715178)
(-0.00906804092 0.0324788954 0.0991578994)
(0.0206468927 0.0058610249 0.241711238)
(0.0138596282 0.0103254788 0.211874469)
(0.0321576034 0.00478195717 0.00655233926)
(-0.0137579732 0.0131209632 -0.0290793529)
(-0.00381394671 0.00476241676 -0.0072949468)
(0.0203494746 0.00623265398 -0.031405492)
(0.0128738975 -0.00560273861 0.244996077)
(-0.00853668659 -0.0288292936 0.151237907)
(0.0133612442 -0.00829340131 0.26035671)
(0.0124009588 -0.00836801322 0.241961093)
(0.00876372516 -0.0067400557 0.0749876923)
(0.00599760135 0.000384492723 -0.109360802)
(0.0179770884 -0.00648058123 0.0877330249)
(0.00653486535 -0.00589861787 -0.0702889846)
(-0.015046926 0.00911989158 0.178416276)
(-0.00255649443 0.0151660676 0.0145409158)
(0.0217092618 -0.000215560283 0.228684228)
(0.0120701301 0.00462238584 0.17575853)
(0.0277377739 0.00657286997 0.0828927732)
(0.0168702776 0.0106167252 0.0165448401)
(0.012419056 0.00567651099 0.0127848297)
(0.018401156 0.00388921122 -0.0340619177)
(-0.00171653802 -0.00309695092 0.250382353)
(-0.000813116756 -0.0114375466 0.119640071)
(0.0153994791 -0.00230106162 0.270313242)
(0.0107645045 -0.00609557981 0.207125164)
(0.00358470547 0.00359070596 0.0970369061)
(-0.00157805952 0.0139218241 -0.0673494454)
(0.00923314788 -0.00342178074 0.125479878)
(0.00258673287 -0.00502967936 0.0462306677)
(-0.0139374471 0.0123710697 0.144284375)
(0.00287239109 -0.00308395707 -0.0782331862)
(0.0196969473 0.00474971426 0.187144908)
(0.00477372124 0.00133682851 0.126108428)
(0.0104244064 -0.000138777041 0.136262751)
(0.0223995343 -0.00442341399 0.0301964842)
(0.0144447295 -0.00258057963 0.102945798)
(0.000698355333 -0.00271721361 0.0282179122)
(-0.012466146 -0.00649161141 0.241137759)
(0.00416102239 -0.00123285629 0.0347916661)
(0.0199232991 -0.00210466306 0.248105985)
(0.00991020455 -0.00592735399 0.173280329)
(0.00834419648 0.0145623886 0.127770391)
(-0.0091403745 0.00777989581 -0.0409679817)
(-0.0120241022 0.00784731269 0.168949948)
(0.00202650447 -0.00308167615 0.0322859414)
(0.00176294376 0.00895040606 0.137583289)
(0.0037541015 -0.0119495125 -0.113756925)
(0.00455411505 0.0002568242 0.176349176)
(5.00583221e-05 0.00668324554 0.0725363852)
(0.0161886045 -0.0123114351 0.176769795)
(0.0130272706 -0.0158909025 0.0372067371)
(-0.00518769133 -0.0152699102 0.155352663)
(-0.00625019125 -0.00648830871 0.0665212066)
(-0.000463187181 -0.00641782478 0.219141441)
(0.00695496107 0.00602277552 -0.0722328942)
(0.00759058701 0.00123811521 0.223759886)
(0.00582073953 -0.0093449741 0.112429283)
(0.0145132388 0.0106338764 0.168038047)
(-0.00836661622 -0.00972416266 0.00342838663)
(-0.0301251141 0.00827146437 0.196148396)
(0.00239565131 -0.00825138457 0.0138806729)
(0.0287470236 0.00240755624 0.131822909)
(0.00558339935 -0.0121590404 -0.121218982)
(-0.011882739 -0.00110596688 0.180350125)
(-0.00337257447 0.0017345924 0.015929495)
(0.0286024553 -0.0179757638 0.210383649)
(0.00238823445 -0.00382685032 0.0772719407)
(-0.0301824248 -0.0125564323 0.187228338)
(-0.00614123425 -0.000828082468 0.0507903024)
(0.0244592762 -0.00399511055 0.175128084)
(0.00851531301 0.00691274811 -0.0847159469)
(-0.00998392754 0.00625961699 0.195882751)
(0.000868379983 -0.00669641588 0.04270163)
(0.0109472855 0.00647580858 0.201151609)
(-0.00755163791 -0.00268807335 0.0927094033)
(-0.0208355834 0.00530939169 0.216958106)
(0.000600702168 -0.00751834233 0.0441487559)
(0.0338011652 -0.00138961836 0.097829931)
(-0.00132862103 -0.00660848321 -0.0947032936)
(-0.0193991391 -0.00414001562 0.170749487)
(-0.00805972201 -0.00576615865 -0.0963840533)
(0.0211672061 -0.01262193 0.233557513)
(0.00443055228 0.00194012527 0.144514079)
(-0.0144191332 -0.00864782103 0.210588621)
(-0.00726781741 0.000210935461 0.0608580588)
(0.0320133055 -0.00332397639 0.109712624)
(-0.00650910702 0.00696131237 -0.0616499764)
(-0.014682826 0.00479388503 0.174128951)
(0.00230771652 -0.00258872072 -0.0363145399)
(-0.00375504893 -0.00514363037 0.213510323)
(-0.0169224964 -0.00132416426 0.136534041)
(0.0015344482 -0.00444943283 0.233927292)
(0.00283381612 -0.000908045449 0.122872521)
(0.0212816729 -0.00393894911 0.0435977182)
(-0.0041945719 -0.00487401128 -0.0578954566)
(-0.00554268939 -0.00464812022 0.133394532)
(-0.00279821719 -0.00396441659 -0.109640779)
(-0.00355698622 0.000740397988 0.242747907)
(-0.0080913182 0.00253162693 0.178461311)
(0.00459358112 -0.00529573967 0.23187743)
(-0.00158575312 -0.00340582015 0.145355314)
(0.012437145 -0.000459484185 0.0606384396)
(-0.0229827851 0.00371654038 -0.0561417233)
(-0.00286569005 3.98343427e-05 0.100129932)
(0.00921042788 -0.00128557955 -0.0737291894)
(-0.00451193088 -0.0187528705 0.197768761)
(-0.0161154057 -0.000659797146 0.183415457)
(0.00202203906 -0.0110822691 0.193336598)
(0.00607234838 0.000737693808 0.177845611)
(-0.00492917095 -0.00192761858 -0.0400920762)
(0.000567156963 -0.00350380683 -0.0485976372)
(-0.000365302561 0.000139077759 0.0292203623)
(-0.00696981605 -0.00402700895 -0.0630172486)
(-0.0125224802 0.0163191512 0.216236159)
(-0.014216528 0.00168529941 0.217364469)
(0.00440771839 0.0048921342 0.191950179)
(6.92754139e-05 0.000412637815 0.200773062)
(-0.0045380519 0.00336949727 0.0514181295)
(-0.0123685968 -0.00224396859 -0.0425077676)
(0.011487421 -0.0038052424 0.00428215604)
(-0.00883129465 0.0032690245 -0.0138700764)
(2.44326272e-05 -0.00415612807 0.179609168)
(-0.00376411503 -0.00142202021 0.216996207)
(-0.00442855327 -0.00641038587 0.165993172)
(-0.00639266311 0.00214316781 0.211546883)
(-0.0056980842 0.000931579585 -0.134575567)
(-0.000820438705 0.00281324848 0.0196721008)
(-0.00250198594 0.00764841936 -0.0479868719)
(-0.00118896825 0.0045169686 0.00199825634)
(-0.0111340977 0.00699841306 0.182777936)
(-0.00784253592 0.000419525242 0.239777814)
(-0.00388937146 0.00250857785 0.17039187)
(-0.00898413623 0.00310278307 0.235793748)
(-0.00386049834 0.000458712105 0.0274290253)
(0.0079690655 -0.00169165753 -0.0186258395)
(0.00202621303 -0.00314924204 -0.0213261206)
(-0.0208232105 0.00167707771 0.017865394)
(0.000359900413 0.0114079883 0.129360116)
(0.0116257274 0.00722548638 0.228268382)
(-0.0122913518 0.00849052966 0.134873663)
(-0.0212068761 0.00556168714 0.219328762)
(-0.00248674096 0.000669327298 -0.105627871)
(-0.0073634928 0.00494775832 0.0891555412)
(0.00103129875 0.012598072 -0.0812454402)
(0.00823287018 0.00366792541 0.0708084214)
(-0.00706585245 -0.0108117391 0.147520271)
(0.00465675581 0.00175322456 0.248302259)
(-0.0100376212 -0.00242589722 0.157627928)
(-0.0185934907 -0.000748751117 0.246932416)
(1.26707516e-05 -0.00696384829 -0.0642836325)
(0.0039773019 -0.0065573933 0.061200659)
(-0.0131998253 -0.0079731525 -0.0501705207)
(-0.0233670529 -0.00491429558 0.062297084)
(-0.00131296574 -0.0015654649 0.0200413256)
(0.0169492399 -0.000227250561 0.209410283)
(-0.0158126663 0.00215720304 0.0889525353)
(-0.02835525 -0.00339996545 0.185524004)
(-0.00127023997 -0.0139925142 -0.0393749252)
(0.00599498543 0.00476028811 0.114354113)
(0.00119751019 0.014362256 -0.0299522565)
(-0.0161228936 0.00134032056 0.111936958)
(-0.00510955751 -0.00589612349 0.0744264032)
(0.0169996109 0.00398864207 0.247569489)
(-0.0143310713 0.00331092341 0.145436694)
(-0.0337291296 0.00115037283 0.230354038)
(-0.00100798975 0.00669909252 -0.0423304881)
(0.0108176266 -0.00433665964 0.130362983)
(-0.00490014012 -0.00771303719 -0.0344256703)
(-0.0199755671 -0.00194657911 0.130801435)
(-0.00167068817 -0.0109634782 -0.0554446566)
(0.0117425815 -0.00198075783 0.184140855)
(-0.0139032901 -0.00683504834 0.0285461663)
(-0.0257326001 -0.00600224828 0.134225865)
(-0.00478737631 -0.0237122601 -0.0409338414)
(0.0157547831 -0.00819007274 0.152725851)
(0.00523107813 -0.0034754204 0.0802290921)
(-0.0180398573 -0.0121368668 0.14508501)
(-0.0145598498 0.000392309603 -0.0714763491)
(0.0205804904 -0.000278170631 0.210723941)
(-0.0132178634 0.00324642447 0.136378854)
(-0.0375956015 -0.000581869301 0.164174371)
(-0.00671306193 0.0201298758 0.000397960912)
(0.0197395802 0.0128174637 0.162141756)
(0.00181341827 -0.0035450542 0.13270734)
(-0.0219813918 0.0053260396 0.168934048)
(-0.00453637311 0.00817866033 -0.0819778021)
(0.00388359011 0.00619883851 0.168334622)
(-0.00670900908 0.00275125262 0.00102140692)
(-0.0163007388 -0.00626583146 0.104140301)
(-0.0178717797 -0.00177949887 0.0139883312)
(0.00358777438 -0.0323763074 0.168065275)
(0.0186652174 -0.0240465001 0.149453724)
(-0.00560509459 -0.0190200345 0.168831797)
(-0.0291610718 0.000619309973 -0.145585111)
(0.0111734076 -0.00444241699 0.111512579)
(0.00909100457 -0.00405842936 0.125652067)
(-0.0287788142 -0.00108643814 0.0770522736)
(-0.0161904126 0.0170752548 0.0305573979)
(0.000516247592 0.0345482011 0.183409652)
(0.010223204 0.0163867505 0.168541787)
(-0.0057669044 0.0148507083 0.199927061)
(-0.00843451365 -0.00169654665 -0.104883978)
(-0.00272881867 0.00729312137 0.159966021)
(-0.00330311837 0.00222661127 0.021944163)
(-0.00486463904 -0.00270450704 0.0855793424)
(-0.00239304828 0.0164350313 0.0869786687)
(-0.0116802476 -0.0196486385 0.140809947)
(0.0232460926 -0.0308826885 0.193224192)
(0.0144091595 -0.0112820027 0.205021431)
(-0.0143229188 0.00826610398 -0.127504074)
(-0.0315640986 0.00253947506 -0.0611610831)
(0.0346828455 -0.00466875232 0.0673251188)
(0.00522513649 0.00273476224 0.0642507536)
(-0.00672724108 0.00385580681 0.105629652)
(-0.0180304088 0.0255972474 0.153155741)
(0.0186012479 0.0267373598 0.20443531)
(0.0071738012 0.0125118058 0.243599646)
(-0.00349333988 -0.000412044844 -0.0824672445)
(-0.0109879472 0.00409525567 0.117511657)
(0.0145028701 -0.00339711481 0.038355434)
(0.00763493549 -0.00170765263 0.0479502406)
(0.00320687421 0.0161589708 0.110832132)
(-0.00495006792 0.0126163067 0.18630826)
(0.0162412696 -0.00649530726 0.204433951)
(0.012425221 0.000983129848 0.216915081)
(0.00871749346 0.00653403876 -0.0721860571)
(-0.0386052283 0.00816991386 -0.0981520954)
(0.0142414969 -0.00214661322 -0.0152984506)
(0.0130043962 0.0023395102 0.0467175173)
(0.00558011152 -0.00425373759 0.161814211)
(-0.0186780891 -0.00280991591 0.180495859)
(0.00955666383 0.00835917638 0.229394834)
(0.0124203904 0.00812973995 0.262775371)
(0.0057708625 0.00201017203 -0.0448306213)
(-0.0195556917 -0.00374434567 0.000268485797)
(0.0227994786 -0.00518249482 0.00635704733)
(0.025768857 -1.12164779e-05 0.0143877662)
(-0.00622275159 0.0146758708 0.145030284)
(-0.00598501371 0.0379730316 0.153615008)
(0.0111196463 0.00807072502 0.233913881)
(0.0134892622 0.00697012072 0.211466603)
(0.00860638802 0.00217366526 -0.035625152)
(-0.0279555511 0.0121534996 -0.0968093064)
(-0.00870684888 -0.000739215491 0.00398382795)
(0.0158468418 0.00235859555 -0.00312307143)
(0.00341617871 -0.00551642197 0.212191727)
(-0.0138021891 -0.0348757434 0.17558604)
(0.0116858575 -0.0147325413 0.247720359)
(0.0126507191 -0.000592748597 0.252108141)
)
;

boundaryField
{
    vin_DB
    {
        type            cyclic;
    }
    pout
    {
        type            cyclic;
    }
    w_F
    {
        type            cyclic;
    }
    w_B
    {
        type            cyclic;
    }
    w_L
    {
        type            cyclic;
    }
    w_R
    {
        type            cyclic;
    }
}


// ************************************************************************* //
