/*--------------------------------*- C++ -*----------------------------------*\
  =========                 |
  \\      /  F ield         | OpenFOAM: The Open Source CFD Toolbox
   \\    /   O peration     | Website:  https://openfoam.org
    \\  /    A nd           | Version:  6
     \\/     M anipulation  |
\*---------------------------------------------------------------------------*/
FoamFile
{
    version     2.0;
    format      ascii;
    class       volVectorField;
    location    "2.74";
    object      U.air;
}
// * * * * * * * * * * * * * * * * * * * * * * * * * * * * * * * * * * * * * //

dimensions      [0 1 -1 0 0 0 0];

internalField   nonuniform List<vector> 
256
(
(0.0156009544 -0.00257440251 0.0186121948)
(-0.00597629832 -0.00488386433 -0.0929845588)
(0.01512374 -0.00473172216 0.0235975705)
(0.0157316513 -0.00412754882 -0.0411104803)
(-0.0079998629 0.00878383313 0.191869346)
(-0.00896492297 0.0331864156 0.109708713)
(0.0212369113 0.00503034953 0.256121236)
(0.0137714966 0.0105098902 0.225105541)
(0.0320953411 0.00496627101 0.0183313737)
(-0.0141166137 0.013627238 -0.018111732)
(-0.00380063293 0.00515734039 0.00260185323)
(0.0207542621 0.00641327394 -0.0216202472)
(0.012649573 -0.00535991594 0.259631779)
(-0.00829604053 -0.0294224677 0.163373485)
(0.0135588236 -0.0075263666 0.275492456)
(0.0121679881 -0.00855218195 0.25585357)
(0.00840561556 -0.00695929072 0.0887216829)
(0.00643897205 0.000162496673 -0.0986060743)
(0.0183302743 -0.00681344751 0.101523274)
(0.00610645535 -0.00622671086 -0.0598114345)
(-0.0157636313 0.00889243204 0.191020352)
(-0.00231237236 0.0145881742 0.0224157265)
(0.0224125547 -0.00087381305 0.241610615)
(0.011890383 0.00426619321 0.1866096)
(0.0268054215 0.006800399 0.0962973993)
(0.0167917171 0.0110518953 0.0275443196)
(0.0133573227 0.00603793459 0.0247038826)
(0.0182491896 0.00423742145 -0.02425255)
(-0.0023031087 -0.00289589471 0.263819481)
(-0.000460602411 -0.0107507622 0.129561699)
(0.0159779597 -0.00175058123 0.283860268)
(0.0104455956 -0.00576676312 0.218807643)
(0.00363660696 0.00352254867 0.110030026)
(-0.0011836143 0.0140169067 -0.0564644237)
(0.00911531393 -0.00347759719 0.138397155)
(0.00222277213 -0.00525516792 0.0584963467)
(-0.014108574 0.0124228651 0.155938014)
(0.00308921634 -0.0038349231 -0.0694893153)
(0.0198597108 0.00462597426 0.199046328)
(0.00458118563 0.00102158114 0.134508503)
(0.00987093293 -7.48084419e-05 0.149485926)
(0.0226210572 -0.00451695974 0.0413135514)
(0.0149764591 -0.00251027731 0.116255713)
(0.000497054414 -0.00251338705 0.0396984956)
(-0.0130445457 -0.00654182027 0.253669145)
(0.00435995107 -0.000472951988 0.0423587753)
(0.0204857497 -0.00198661039 0.260656322)
(0.00973416813 -0.00572067498 0.182746275)
(0.00932121587 0.0148130251 0.141647294)
(-0.00886406953 0.00813605197 -0.0298144999)
(-0.0130091844 0.00800972866 0.182704213)
(0.00175344739 -0.00303234133 0.0435912019)
(0.00282584376 0.00901621405 0.149284995)
(0.00394746396 -0.0119743295 -0.104235268)
(0.00348632529 0.000175025237 0.188420769)
(-0.000159787896 0.00682109161 0.0801163687)
(0.0169497021 -0.0125638969 0.190500149)
(0.0131592376 -0.0162448503 0.0490643922)
(-0.00595186483 -0.0154278151 0.169194869)
(-0.00637675815 -0.00654351215 0.0776741272)
(0.000269850098 -0.00648180951 0.231489952)
(0.00727177041 0.00604003213 -0.0631448006)
(0.00684078055 0.00131633751 0.236512141)
(0.00552252988 -0.00948251296 0.120001532)
(0.0155176565 0.0110331625 0.182788521)
(-0.00816809114 -0.00929731121 0.0162793864)
(-0.0311089246 0.00854141512 0.210972342)
(0.00217326128 -0.00815020851 0.0263818867)
(0.0306901553 0.00224978771 0.142889191)
(0.00597728552 -0.0122090113 -0.111849211)
(-0.0138563176 -0.00114402972 0.192424573)
(-0.0039329251 0.001538582 0.0257165756)
(0.0297381866 -0.0183671216 0.224992632)
(0.00269327961 -0.00425484935 0.0901814487)
(-0.0312832832 -0.0128240413 0.202146623)
(-0.00648467107 -0.000928810493 0.0629218655)
(0.0260882853 -0.00383844256 0.18660845)
(0.0091099042 0.00695436925 -0.0756584969)
(-0.0116594028 0.00629549149 0.208602965)
(2.93029727e-05 -0.00649917688 0.0522637861)
(0.0108700528 0.00669090378 0.21564858)
(-0.00731292455 -0.00217636535 0.107180828)
(-0.0207322615 0.00566190443 0.231478105)
(0.000362696083 -0.00730077796 0.0588529862)
(0.0348329885 -0.00144687149 0.107573832)
(-0.000907136987 -0.00671719748 -0.084455195)
(-0.0203711917 -0.00413386186 0.182090316)
(-0.00868229091 -0.00592570953 -0.0850365509)
(0.0210396161 -0.0128384 0.248166569)
(0.00471200662 0.00141573137 0.159070405)
(-0.0142412422 -0.00899908346 0.225130775)
(-0.00754984905 -4.30011382e-06 0.0750755133)
(0.0325571982 -0.00326385022 0.120230816)
(-0.00613815546 0.00706525785 -0.0530282646)
(-0.0152646818 0.00478866311 0.185741951)
(0.00176433428 -0.00239938769 -0.0249928192)
(-0.00462529518 -0.00559177291 0.227367214)
(-0.0168914228 -0.00107576564 0.151384482)
(0.0023932342 -0.00427112327 0.247708404)
(0.00282774784 -0.000742955886 0.13793326)
(0.0209336898 -0.00387056447 0.0518542999)
(-0.00414798829 -0.0049359007 -0.0468974143)
(-0.00509647301 -0.00465868239 0.142473338)
(-0.0026617795 -0.00384817172 -0.0990422718)
(-0.00457009971 0.00118442413 0.256638737)
(-0.00810460037 0.00227524759 0.193413491)
(0.00560172007 -0.00547166709 0.245564952)
(-0.00154669406 -0.00357428831 0.160356597)
(0.0116775202 -0.000517541177 0.0702766502)
(-0.0234428704 0.00377254949 -0.0468737936)
(-0.00209088785 5.04951182e-05 0.10890865)
(0.00972270325 -0.00140120198 -0.0631639214)
(-0.00487735516 -0.0192081514 0.211107677)
(-0.0163183146 -0.000387664415 0.198664228)
(0.00239468291 -0.0112071574 0.206522237)
(0.00627449151 0.00109809864 0.192387225)
(-0.00554328265 -0.00201676022 -0.0301284665)
(9.62282304e-05 -0.00368877281 -0.0369169431)
(0.000296877246 -1.57167215e-05 0.0380225732)
(-0.00649638319 -0.00401658993 -0.0517501058)
(-0.0130294898 0.0167806817 0.229564095)
(-0.0144219601 0.00140461805 0.232839462)
(0.00492255601 0.00501556102 0.20503952)
(0.000271492861 5.04583301e-05 0.21517519)
(-0.00514726386 0.00346365803 0.05999764)
(-0.0131555534 -0.0020607502 -0.0323541715)
(0.0122740626 -0.00365588075 0.0132066932)
(-0.0080215604 0.0032587319 -0.00315841859)
(8.23896305e-05 -0.00304177451 0.19190488)
(-0.00378636401 -0.00106290974 0.231384026)
(-0.00448632339 -0.00600982486 0.178533135)
(-0.00636605545 0.00293518191 0.225603282)
(-0.00569536992 0.00093692056 -0.124391282)
(-0.00151789476 0.00274938625 0.0339235627)
(-0.00249657746 0.00769160922 -0.037575754)
(-0.000494756433 0.00447246785 0.0157790596)
(-0.011066424 0.00588458384 0.195345383)
(-0.00779965164 5.00495558e-05 0.254708921)
(-0.00395604013 0.00211072809 0.183139644)
(-0.00902039822 0.0023027988 0.24997617)
(-0.00345062855 0.000483166264 0.0365294179)
(0.00799606891 -0.00162440228 -0.00770073961)
(0.00161531493 -0.00317353657 -0.0111488844)
(-0.0208507162 0.00172173617 0.0283821291)
(0.000482881938 0.0124343652 0.138935601)
(0.012034837 0.00707944677 0.241226339)
(-0.0124284627 0.00887599266 0.145567493)
(-0.0216190322 0.00566568229 0.232353668)
(-0.00239521642 0.000936451656 -0.0946961895)
(-0.00724950938 0.00516496218 0.102707444)
(0.000925633968 0.0129718303 -0.0717516608)
(0.00812466101 0.00380798949 0.0842232074)
(-0.00679029776 -0.0117492308 0.158063277)
(0.00512098565 0.00190903739 0.261679155)
(-0.0103166453 -0.0028183672 0.16891072)
(-0.0190648776 -0.000839140493 0.260050724)
(0.000483455368 -0.00728693468 -0.0545783099)
(0.00433098302 -0.00676812414 0.0746146968)
(-0.0136095873 -0.00835191671 -0.0396613369)
(-0.0237115619 -0.00505602149 0.0753330703)
(-0.000981705266 -0.00146331714 0.0271500609)
(0.0178744396 -0.000597522276 0.221380864)
(-0.0161031008 0.0020758311 0.0975617637)
(-0.0292899413 -0.00381022455 0.197347768)
(-0.00110855301 -0.01386344 -0.0281225593)
(0.00699670215 0.00486050156 0.127282722)
(0.00104058429 0.0147383992 -0.01795469)
(-0.0171291337 0.00137705749 0.124863909)
(-0.00457463865 -0.00589905498 0.0820463222)
(0.0182822232 0.00435722316 0.259511941)
(-0.0147099051 0.00346335995 0.155582864)
(-0.0350200743 0.00156493078 0.241924741)
(-0.000913492772 0.0066274549 -0.0316354416)
(0.0116477376 -0.00442041442 0.143202107)
(-0.00496620542 -0.0080436842 -0.0228279752)
(-0.0208162537 -0.0019743876 0.143811973)
(-0.00139440255 -0.0111405026 -0.046167484)
(0.0121653226 -0.00210946326 0.195756281)
(-0.0141200414 -0.0069213649 0.0364460929)
(-0.0261463262 -0.00626144809 0.14550561)
(-0.00472653454 -0.0239721895 -0.0293564182)
(0.0163117698 -0.0086436186 0.166027498)
(0.00517266375 -0.00321968868 0.0933594795)
(-0.0186182623 -0.0125304127 0.158794269)
(-0.0140811934 0.000555942851 -0.062315516)
(0.0218294837 -0.000149013691 0.221548352)
(-0.0133352155 0.00332663808 0.146196298)
(-0.0388597357 -0.000320499717 0.174513497)
(-0.00680273406 0.0203848937 0.0113817138)
(0.0201002711 0.0132752796 0.175148294)
(0.00188799867 -0.00378988751 0.145496158)
(-0.0223296697 0.00571525277 0.182369077)
(-0.00480973677 0.00807284599 -0.0717196853)
(0.00342319997 0.00608501391 0.180228226)
(-0.00650431533 0.00292772402 0.00988302257)
(-0.0158470534 -0.00650888701 0.115556029)
(-0.0182820042 -0.00137675418 0.0283147062)
(0.00268430219 -0.0333240352 0.181836592)
(0.0191090207 -0.0243754736 0.163514826)
(-0.00466176167 -0.019144148 0.183442551)
(-0.03019141 0.000711846128 -0.134970802)
(0.010390407 -0.00426279042 0.120466277)
(0.0101040555 -0.00422247439 0.13594484)
(-0.027781973 -0.000818592346 0.0880383223)
(-0.0167265841 0.0166605609 0.0449807859)
(-0.000562882475 0.0354964413 0.197358155)
(0.0107975816 0.0167157793 0.182413036)
(-0.00466295276 0.0149629381 0.214761947)
(-0.00881934 -0.00197212157 -0.0945373559)
(-0.00368167584 0.00726182668 0.171206645)
(-0.00304350006 0.00202225414 0.0310839941)
(-0.00393333611 -0.00303557023 0.0960816121)
(-0.00252461377 0.0166384076 0.101771655)
(-0.0128010051 -0.0200073773 0.15521047)
(0.0234773356 -0.0311148323 0.208576323)
(0.0155058012 -0.0108061146 0.219958327)
(-0.0152248187 0.00850849673 -0.116878871)
(-0.0330690996 0.00260951702 -0.0508807497)
(0.0358250158 -0.00448093462 0.077854707)
(0.00661715066 0.00303596067 0.075381969)
(-0.00707579141 0.00365528757 0.121092877)
(-0.0191895122 0.025964023 0.16787801)
(0.0190577447 0.0269712782 0.21980347)
(0.00827103362 0.0120299527 0.258874773)
(-0.00399853664 -0.000755479345 -0.0711389218)
(-0.0125011089 0.00393516878 0.126378859)
(0.0149498043 -0.00373173905 0.0479156407)
(0.00905697361 -0.00205878778 0.0567427329)
(0.00338314359 0.0160299206 0.125498551)
(-0.00550132637 0.0138892612 0.200331022)
(0.0160862844 -0.00581579224 0.220171727)
(0.0129681156 0.00151838264 0.231459184)
(0.00902718928 0.00689279102 -0.0615707275)
(-0.0390526185 0.00833376935 -0.0880031695)
(0.0139621495 -0.00187291647 -0.00489759031)
(0.0134879038 0.00262529378 0.0562604695)
(0.00572265348 -0.00412779046 0.176987918)
(-0.019339888 -0.00408028471 0.194987911)
(0.00945226671 0.00767467814 0.245347973)
(0.013072848 0.00759026783 0.277569867)
(0.00519849603 0.00172160396 -0.0337958898)
(-0.0203226691 -0.00430117997 0.00981369053)
(0.0233544381 -0.00533873963 0.017034674)
(0.0264047192 -0.000119082944 0.0237707289)
(-0.00654175079 0.0144863612 0.159788353)
(-0.00601124593 0.0397860259 0.166139196)
(0.0114409567 0.00831710108 0.249308938)
(0.0135157041 0.00746508822 0.225577375)
(0.00925130958 0.00248123162 -0.0248449216)
(-0.0278954308 0.0126190245 -0.0873625944)
(-0.00935190824 -0.00061689331 0.0147789477)
(0.015779735 0.00242630409 0.00601112508)
(0.00350984293 -0.0053242083 0.227291225)
(-0.0139952661 -0.036692753 0.188861832)
(0.0115958199 -0.0149688672 0.263694459)
(0.0128411353 -0.00109181248 0.266572155)
)
;

boundaryField
{
    vin_DB
    {
        type            cyclic;
    }
    pout
    {
        type            cyclic;
    }
    w_F
    {
        type            cyclic;
    }
    w_B
    {
        type            cyclic;
    }
    w_L
    {
        type            cyclic;
    }
    w_R
    {
        type            cyclic;
    }
}


// ************************************************************************* //
