/*--------------------------------*- C++ -*----------------------------------*\
  =========                 |
  \\      /  F ield         | OpenFOAM: The Open Source CFD Toolbox
   \\    /   O peration     | Website:  https://openfoam.org
    \\  /    A nd           | Version:  6
     \\/     M anipulation  |
\*---------------------------------------------------------------------------*/
FoamFile
{
    version     2.0;
    format      ascii;
    class       volVectorField;
    location    "2.74";
    object      U.airMean;
}
// * * * * * * * * * * * * * * * * * * * * * * * * * * * * * * * * * * * * * //

dimensions      [0 1 -1 0 0 0 0];

internalField   nonuniform List<vector> 
256
(
(-3.14010632e-05 0.00617206175 0.0992313226)
(-0.000662635233 0.00657627673 0.0920612827)
(0.00373596099 0.00209114373 0.0808184573)
(-0.000689602475 0.00123855806 0.0862873739)
(-0.0029291476 0.00300150726 0.0986164657)
(-0.000526899382 0.000310356435 0.0917333046)
(0.00700589248 -0.00164760306 0.0955056858)
(-0.000277291788 0.000115442017 0.102832558)
(-0.0014443839 -0.00428810499 0.0746211988)
(0.00364718612 -0.00599109581 0.0666081485)
(0.00744271385 -0.00528397562 0.0806547681)
(-0.00324811789 -0.000204354299 0.0950121272)
(-0.00179335187 -0.00218354592 0.0953285176)
(0.00150075466 -0.00411082401 0.0907333729)
(0.00421602648 -0.0027083947 0.103834814)
(0.00186765451 0.00100482221 0.0936669518)
(8.49918671e-05 0.0046889984 0.096459803)
(0.00249782146 0.00413990989 0.088148472)
(0.00587109596 0.00281382098 0.0844731563)
(-0.00174529841 0.000458465402 0.0901998666)
(-0.00359986915 0.00248901915 0.108005939)
(0.00106386757 -0.0012958068 0.090508033)
(0.00652057549 -0.00248530067 0.102679575)
(-0.00102525238 -0.0010005364 0.110854856)
(-0.000303164521 -0.00293335591 0.0717608725)
(0.00336361872 -0.0040146053 0.0616661984)
(0.00861667464 -0.00594266247 0.0810303632)
(-0.00189132003 0.000629566749 0.0961629069)
(-0.00336931251 -0.000310185433 0.0905298736)
(-0.00126512012 -0.00186381686 0.0826122445)
(0.00377062275 -0.00170783903 0.100679479)
(-0.00154612832 0.00214484878 0.0999335347)
(0.00049159463 0.000617138653 0.0948730563)
(0.00372329788 0.00281951596 0.0869975456)
(0.00537200297 0.000994394371 0.0887382699)
(-0.0021437178 -0.000227540924 0.0938855706)
(-0.000573399321 0.00247206216 0.108901314)
(0.00168150111 0.000472847653 0.0874029626)
(0.00591105703 -0.00150204544 0.108908299)
(-0.00113298707 -0.000168163897 0.11492421)
(5.60970659e-05 0.00107319742 0.07074224)
(0.00342385092 -0.00185308808 0.0591271821)
(0.00642488615 -0.00450629086 0.0845834766)
(-0.00138978464 0.00104535311 0.101378866)
(-0.00260008989 -0.00149621014 0.0853029212)
(-0.00249439087 -0.00361216027 0.0769080726)
(0.00458531464 -0.0023844119 0.0942265775)
(-0.00189004349 0.00110523223 0.105998111)
(0.000732375654 -0.00199106296 0.0888867121)
(0.00440446695 0.00175468218 0.0770001305)
(0.000913580709 -0.00106799337 0.0941121315)
(-0.00417101074 -0.00119526051 0.096725869)
(-0.000378662604 0.00401581114 0.106661905)
(-0.000296474598 0.00438034216 0.0852251909)
(0.00162478151 0.00144386895 0.114148861)
(-0.00247333825 0.00209216827 0.112141237)
(0.000764565445 0.00408689483 0.0707404305)
(0.00089455795 0.000347784644 0.0601458338)
(0.00047530436 -2.66802464e-05 0.0891721689)
(-0.00273645758 0.000827596058 0.103818161)
(0.000295275806 -0.00304258565 0.09390877)
(-0.00127965464 -0.00525691797 0.0683409942)
(0.00224684409 -0.00233978426 0.0946661671)
(-0.000985228945 -0.000522472245 0.109496224)
(0.00234982419 -0.00401003277 0.0787747942)
(0.00180127027 -0.00074041405 0.0713273442)
(-0.00370024748 -0.00262836325 0.0967410808)
(-0.00282743595 -0.00321619579 0.0883670539)
(0.000921336692 0.00587318402 0.103031986)
(-0.00185197506 0.00534956714 0.0851440968)
(-0.00060895225 0.00318948546 0.114829118)
(-0.00103793002 0.00457898858 0.110039722)
(0.00226800879 0.00567866666 0.0741078694)
(-0.00142361143 0.0029621539 0.0689831965)
(-0.00462176774 0.0022165933 0.0922046625)
(-0.00425262432 0.00203255016 0.105041356)
(0.00644944691 -0.00430243119 0.0994381422)
(0.000137369986 -0.00347288875 0.067960597)
(-0.00408557214 -0.000526784095 0.100473184)
(-0.00125724612 -0.0030458709 0.104274912)
(0.00127182063 -0.00358903095 0.0759229606)
(-0.00217750953 -0.00269069647 0.0728851955)
(-0.00333915969 -0.00236267463 0.0971134676)
(-0.000919128618 -0.00401166352 0.0791045465)
(0.00103934839 0.00439736446 0.0955026649)
(-0.00320753567 0.00339551892 0.0832906698)
(-0.00172098706 0.00312114422 0.108327687)
(-0.000486768326 0.0042494535 0.0997252815)
(0.00215988165 0.00449785572 0.0781422224)
(-0.00272185399 0.00496376992 0.0782522938)
(-0.00535648588 0.00247202069 0.0948460683)
(-0.00397818082 0.00397738518 0.107065455)
(0.00637763582 -0.00199980597 0.10221912)
(-0.000744553915 0.000400313871 0.0802934993)
(-0.0062596406 0.00299484926 0.103689292)
(-0.00187678669 -0.000149965781 0.0934617217)
(0.000209700252 -0.00397004378 0.0810745658)
(-0.00483605452 -0.00360322728 0.0743640713)
(0.000538719995 -0.00277773911 0.100973244)
(0.00090261079 -0.00314419102 0.0821267367)
(0.00229656992 1.99274338e-05 0.097530488)
(-0.0030144219 -0.000563943132 0.0759014824)
(-0.00111123079 0.00112751803 0.105743572)
(-0.000265597122 -0.000791278729 0.088030212)
(0.00268173051 0.00293585453 0.0854010312)
(-0.00514666476 0.0056484622 0.0818743199)
(-0.0083773715 0.00201664919 0.0983422255)
(-0.00205248266 0.00427037387 0.107287645)
(0.00322242593 0.0029036918 0.1064073)
(-0.00232094102 0.00317105944 0.0875571119)
(-0.00557738733 0.00393111815 0.107510903)
(-0.00248382478 0.0052510739 0.090480441)
(0.0012456978 -0.00516043165 0.0885864393)
(-0.00514638039 -0.00443596992 0.0757449522)
(0.00139425788 -0.00383820888 0.0980858263)
(0.00197248691 -0.00557591717 0.0908703549)
(0.00294726512 -0.00509466138 0.0942218809)
(-0.00358361017 -0.00351360709 0.0703677901)
(-0.000786368595 -0.00397713274 0.10120042)
(-0.000888500402 -0.00674303456 0.077928762)
(0.00228375449 0.00157382916 0.0828745765)
(-0.00803123442 0.00376554971 0.0844587864)
(-0.00822386017 0.00129167822 0.0934169317)
(-0.00037176739 0.000804594251 0.0902906199)
(0.0019575108 0.0052773739 0.108994653)
(-0.00283125223 0.00379623805 0.0949705051)
(-0.00490789243 0.00255919702 0.1065863)
(-0.00323056933 0.00775519767 0.085937695)
(0.00252774641 -0.00576540758 0.100838756)
(-0.00124846299 -0.00189250795 0.0840879701)
(0.000848898733 -0.00408757686 0.0991860943)
(0.00064368514 -0.00607769458 0.102718723)
(0.000228960974 -0.00506570979 0.0910485402)
(-0.00234858167 -0.00419322649 0.0697655086)
(0.000468166837 -0.00420991379 0.0945453408)
(0.00129351731 -0.0045341777 0.0725880736)
(2.76193733e-07 -0.00272543378 0.0838182143)
(-0.00863332553 -9.46471015e-05 0.0853157711)
(-0.00358746793 -0.000434472198 0.0849827977)
(0.00194750924 -0.00425908687 0.0800908376)
(-0.000673469703 0.00320738113 0.108778459)
(-0.00202268695 0.00476249695 0.104163368)
(-0.00337121565 0.00296535664 0.108191525)
(-0.00371134466 0.00568946643 0.0882008964)
(0.00227044652 -0.00347070048 0.103697229)
(0.00172037534 9.96867638e-05 0.0946907658)
(0.000255638841 -0.00244515271 0.102643493)
(-0.00190049176 -0.00198129251 0.108491831)
(0.00103016694 -0.00353032693 0.0880649663)
(-0.000627464429 -0.00334658029 0.0712023993)
(0.00185499419 -0.00104254019 0.0909265196)
(0.00388023417 -9.80519869e-05 0.0793165394)
(0.000372818712 -0.00485361252 0.0930621481)
(-0.00459763172 -0.00396442919 0.0811473174)
(-0.00163680865 -0.00254834483 0.0732361878)
(0.0017769172 -0.0050528489 0.0801526664)
(-0.00157844404 0.000765713965 0.0997309122)
(-0.000504708192 0.00450561187 0.104732816)
(-0.00157768342 0.00246918826 0.108766517)
(-0.00174486066 0.00345765522 0.0894942451)
(0.00102860999 -0.00210056058 0.101519631)
(6.91961842e-05 5.27348448e-05 0.0986772524)
(-0.000815456419 -0.00122592975 0.103551884)
(-0.00219417305 0.000887930394 0.107630975)
(0.0003506575 -0.00435887968 0.0884062545)
(-0.00361121877 -0.00191521223 0.0735063093)
(0.00135314264 0.00184641545 0.0875438728)
(0.0031863443 -0.00130832359 0.0825822773)
(0.00287597642 -0.00283840106 0.091300008)
(1.70305586e-05 -0.00481461209 0.080126438)
(-0.0027580928 -0.0022114535 0.0725480002)
(-0.000532424924 -0.00203523993 0.0762806403)
(0.000799448296 0.000186393423 0.0950488486)
(-0.000961546879 0.00254488857 0.103905796)
(-0.00119649493 0.00194081822 0.10607665)
(0.000732114543 0.00172573437 0.0892670566)
(0.00323024413 0.000288204137 0.102911695)
(-0.00260130615 -0.00145476793 0.102276938)
(-0.00194557365 0.000498419854 0.100477055)
(-0.000461495355 0.00496301025 0.106331053)
(0.00163700465 -0.00198956639 0.091191001)
(-0.00331808963 0.000954383532 0.0754221538)
(-5.88139118e-05 0.00324935891 0.0789767871)
(0.0024167496 0.0017050214 0.0905603326)
(0.00237441969 -0.000658756514 0.0851962472)
(0.00115733846 -0.00717777819 0.0831167156)
(0.000755576534 -0.00248626395 0.0738679417)
(-0.000733619034 -0.00096939618 0.0651985383)
(0.00159537484 0.0013094342 0.0980610226)
(-0.00232123975 0.00123922129 0.101610516)
(0.000610165144 0.00237227297 0.103470127)
(0.00236447906 0.00333611835 0.087009936)
(0.00397958467 0.00195023669 0.107961213)
(-0.00395798327 -0.00141582341 0.108605891)
(-0.00135204396 0.00159438639 0.0998848166)
(0.00112422026 0.00175950357 0.100719127)
(0.00130188882 0.00197306173 0.0913215423)
(-0.00148703067 0.00127103034 0.0816676868)
(-0.000664682087 0.000924728763 0.0810498121)
(0.000165288277 0.00289318878 0.0968670183)
(-0.00166351777 0.00203191056 0.0860759621)
(-9.10273188e-05 -0.00439532697 0.0856430807)
(0.00510500341 -0.00170817877 0.0773697985)
(-0.00142968214 -0.000615874066 0.0687789392)
(0.000920339937 0.00292197294 0.101058696)
(-0.00278198606 0.000972438302 0.0951800856)
(0.000736570598 0.00272937128 0.100312501)
(0.00120181022 0.0015191093 0.0838105146)
(0.00504200053 0.00301448115 0.114049776)
(-0.00210180386 0.000197022691 0.108814179)
(0.00132759951 0.000106239245 0.099170443)
(0.000272989916 -0.00224042112 0.0986843796)
(0.00191853464 0.00431242832 0.0908299926)
(0.00155947141 0.00125946046 0.0784876272)
(0.000610633129 -0.00152759847 0.0836405875)
(-0.000251130564 0.00283739732 0.0916256871)
(-0.00322484961 0.00271026713 0.0864901177)
(0.00121100152 0.00119444788 0.0769825741)
(0.0072261081 0.000164221493 0.0761459213)
(-0.00264101254 0.000199114172 0.0744452803)
(0.000971532294 0.00286827968 0.100009033)
(-0.000165309657 0.000669556464 0.0958685643)
(0.00140379497 0.000820685678 0.0969532819)
(-0.00171885742 0.000108143447 0.0830247778)
(0.00315832891 0.00196707084 0.113048504)
(-0.00212811844 0.0021432266 0.106017804)
(0.00290770673 2.58593086e-05 0.100517204)
(0.000559784401 -0.00221415323 0.0938082052)
(0.00234916046 0.00440558596 0.0908376952)
(0.00168950663 0.000968871486 0.0829614446)
(0.00339226885 0.000526587699 0.089118922)
(-0.00152647144 0.00375486542 0.0890954774)
(-0.00147502913 0.00115215155 0.0844748203)
(0.00355653238 0.00062878593 0.0708520668)
(0.00762941678 -0.000581962176 0.0757735912)
(-0.00171342937 -0.000120955918 0.0838769284)
(0.000696467568 0.000122033489 0.0973002988)
(0.00344578315 -0.00172917606 0.101256883)
(0.00266779736 -0.00209455626 0.1036338)
(-0.00134474315 -0.0018958041 0.086092248)
(0.00107603189 0.00330975445 0.107790241)
(-0.00304249118 0.00560543853 0.0987145626)
(0.00261402474 0.00140439207 0.0894414109)
(0.00113933973 -0.000145150384 0.0910499179)
(-0.00129689169 0.00362471435 0.0890144151)
(3.82181272e-05 0.00180742428 0.0872618269)
(0.00531702447 0.00109585201 0.0912270984)
(-0.000658384497 0.003823202 0.0934154894)
(-0.00222370967 -0.00167169973 0.0801365486)
(0.00432211195 -0.00290894289 0.0669350679)
(0.00610722738 -0.00333096089 0.0777487145)
(-0.00272094202 -0.000231194345 0.0927368252)
(-0.00102076493 -0.00277685637 0.0976838235)
(0.00373708305 -0.00471628239 0.101060733)
(0.00350933206 -0.00369206121 0.107059487)
(0.00258267546 -0.000895180657 0.0900541737)
)
;

boundaryField
{
    vin_DB
    {
        type            cyclic;
    }
    pout
    {
        type            cyclic;
    }
    w_F
    {
        type            cyclic;
    }
    w_B
    {
        type            cyclic;
    }
    w_L
    {
        type            cyclic;
    }
    w_R
    {
        type            cyclic;
    }
}


// ************************************************************************* //
