/*--------------------------------*- C++ -*----------------------------------*\
  =========                 |
  \\      /  F ield         | OpenFOAM: The Open Source CFD Toolbox
   \\    /   O peration     | Website:  https://openfoam.org
    \\  /    A nd           | Version:  6
     \\/     M anipulation  |
\*---------------------------------------------------------------------------*/
FoamFile
{
    version     2.0;
    format      ascii;
    class       volVectorField;
    location    "2.74";
    object      U.particles;
}
// * * * * * * * * * * * * * * * * * * * * * * * * * * * * * * * * * * * * * //

dimensions      [0 1 -1 0 0 0 0];

internalField   nonuniform List<vector> 
256
(
(0.0173810267 -0.00131691155 -0.0824647157)
(-0.00674359453 -0.0021294122 -0.141417253)
(0.013515149 -0.00256709335 -0.0701461351)
(0.0166251508 -0.00327769796 -0.0886466183)
(-0.00266397961 0.0111279431 0.0672240373)
(-0.00959355371 0.0288732101 0.0453885325)
(0.0159918875 0.0124147143 0.12802224)
(0.0144467154 0.00909702526 0.123735898)
(0.0324788847 0.00383087328 -0.0542290438)
(-0.0119678921 0.0105939953 -0.0838220055)
(-0.00386666844 0.00319854387 -0.0464856559)
(0.0189297143 0.00559914377 -0.0657264639)
(0.0147304961 -0.00761243564 0.12386518)
(-0.00998194404 -0.0252668443 0.0783547894)
(0.0117190997 -0.0146684683 0.134558761)
(0.0139985196 -0.00710510443 0.146695569)
(0.0117157885 -0.00493279991 -0.038227955)
(0.00393016385 0.00142435095 -0.159737341)
(0.0150416492 -0.00371402469 -0.0268820756)
(0.008668824 -0.00426434962 -0.122478846)
(-0.00986972002 0.0107629726 0.0873692335)
(-0.00345589275 0.0172951516 -0.0144715843)
(0.0164817346 0.0046771866 0.132603291)
(0.0130954931 0.00665427793 0.113858868)
(0.0349059321 0.00482357005 -0.0201653358)
(0.0172934091 0.00827287548 -0.0426989558)
(0.00673510574 0.00348703344 -0.059419915)
(0.0190845263 0.00232336168 -0.0781731834)
(0.00306475741 -0.00473581415 0.140852713)
(-0.00263558021 -0.0149881525 0.0683462595)
(0.0105833091 -0.00688411419 0.157526783)
(0.0127423707 -0.00813489337 0.134670697)
(0.00315294836 0.00415769147 -0.0110500012)
(-0.00381231713 0.0133832473 -0.129005516)
(0.0102224235 -0.00295317336 0.0170328091)
(0.00553629261 -0.00320230657 -0.0531711336)
(-0.0128307221 0.0120360944 0.0689170636)
(0.00207491937 -0.000321944058 -0.110392678)
(0.018613203 0.00557362421 0.10790054)
(0.00565892652 0.00278621571 0.0874880881)
(0.0150296388 -0.000671034303 0.0262379728)
(0.0212218374 -0.00392609045 -0.0289059229)
(0.0100052147 -0.0031675475 -0.00818128548)
(0.00208537788 -0.00412163859 -0.0508866845)
(-0.0079527373 -0.00609981812 0.143351978)
(0.00342870119 -0.00403031129 0.00693467493)
(0.0155245964 -0.00302790602 0.149954784)
(0.0108906674 -0.00707848564 0.120558235)
(0.00029017301 0.0124962759 0.0133766501)
(-0.0106049456 0.00589206868 -0.100087683)
(-0.00383677364 0.00649742246 0.0546339216)
(0.00377035576 -0.003396748 -0.0399139576)
(-0.00470264199 0.00855009825 0.0664021932)
(0.00304171252 -0.0118580817 -0.148836761)
(0.0111331211 0.000760814683 0.101972096)
(0.000854654566 0.00615471361 0.0434730728)
(0.00986960471 -0.0102153755 0.0627737669)
(0.0123156973 -0.0139823965 -0.0267303905)
(0.00116193494 -0.0139578559 0.0403358059)
(-0.00546124188 -0.00614420037 -0.00300004878)
(-0.00571697378 -0.00595923673 0.130637842)
(0.00580661871 0.00596022527 -0.105174609)
(0.0129267358 0.000681430496 0.133005891)
(0.00706774724 -0.008769835 0.0807648024)
(0.00622488748 0.00733900904 0.046318656)
(-0.00960752613 -0.0123922599 -0.0768986611)
(-0.0219270899 0.00602198366 0.0726214937)
(0.00351596088 -0.00876106797 -0.0490953058)
(0.0182603283 0.00325900164 0.0721003859)
(0.00412689168 -0.0119742586 -0.155866412)
(-0.000484057464 -0.000886129621 0.11061245)
(-0.001222513 0.00248668293 -0.0216234651)
(0.0192890507 -0.014766489 0.0905847303)
(0.000454094946 -0.00111312156 -0.00458082313)
(-0.0209949838 -0.0103230461 0.0627247168)
(-0.00443598869 -0.000327943842 -0.00944579712)
(0.0150080358 -0.00490407223 0.108520909)
(0.00635898511 0.00676180604 -0.117563443)
(0.000860976268 0.00602741095 0.113548202)
(0.00409219015 -0.00745422604 0.0059629568)
(0.011576089 0.00472457407 0.0831220305)
(-0.00950935967 -0.00688466242 -0.0259727766)
(-0.0216943251 0.00237954735 0.0962778137)
(0.00221009234 -0.00898950625 -0.0552808181)
(0.0290366348 -0.00112524728 0.0528366512)
(-0.00328085217 -0.00610494012 -0.142170469)
(-0.013804635 -0.00417543265 0.105479028)
(-0.00567265688 -0.00515440572 -0.139892856)
(0.0221979039 -0.010873241 0.115542588)
(0.00209429505 0.00629294173 0.0236869427)
(-0.015897255 -0.00572913157 0.0897557922)
(-0.00553483064 0.00153348352 -0.0265032754)
(0.0294899952 -0.00360292295 0.0609150125)
(-0.00786362536 0.0065817586 -0.0931318942)
(-0.0112058146 0.00482508983 0.104732827)
(0.00439578192 -0.0033162744 -0.079820734)
(0.00287029736 -0.00173183799 0.108015232)
(-0.0171772079 -0.00336029856 0.0148043286)
(-0.00533056785 -0.0058748147 0.123763002)
(0.0028844765 -0.00228627876 -0.00286052202)
(0.0225444497 -0.00418710639 0.0136358643)
(-0.00441708644 -0.00457838596 -0.110429472)
(-0.00763097106 -0.00459868955 0.0909059434)
(-0.00332257998 -0.00441117353 -0.150373389)
(0.00422729153 -0.00267128575 0.136017437)
(-0.00798032042 0.00467416363 0.0535074268)
(-0.00347900673 -0.00388701556 0.122275751)
(-0.00191183364 -0.00199938098 0.0201186403)
(0.0154448924 -0.000229606526 0.022475779)
(-0.0212753177 0.0035086795 -0.0905368424)
(-0.00619936519 -6.03486365e-06 0.0623584946)
(0.00721505684 -0.00083521695 -0.114882114)
(-0.00202851594 -0.0156587917 0.107117796)
(-0.0144558242 -0.00288555715 0.0586965154)
(-0.000502784945 -0.0102360969 0.103998169)
(0.00437786627 -0.00228343064 0.0559492792)
(-0.00269454709 -0.00160325083 -0.0763475656)
(0.0026939371 -0.00266847457 -0.101349288)
(-0.00273019894 0.000691907822 -0.00221568672)
(-0.00928117837 -0.00407787599 -0.118024941)
(-0.00905947235 0.0131667772 0.12520288)
(-0.0124882704 0.00404661326 0.0871765685)
(0.000976565692 0.00406955203 0.104715821)
(-0.00162519848 0.00344750789 0.0800909416)
(-0.0023003199 0.0030236299 0.019904229)
(-0.009343385 -0.00294829509 -0.0815401326)
(0.00860297286 -0.00435291992 -0.028442229)
(-0.0127342198 0.00331863493 -0.0655003469)
(-0.000343593676 -0.0112322604 0.101531544)
(-0.00358173917 -0.00436566432 0.0990586289)
(-0.00407747714 -0.00884464447 0.089786268)
(-0.00661479438 -0.00446888077 0.0941984782)
(-0.00570793788 0.000912190196 -0.171547668)
(0.00439170469 0.00329049596 -0.0868301837)
(-0.00252120431 0.00749494946 -0.0849815055)
(-0.0064069529 0.00485145469 -0.10158399)
(-0.0115557531 0.0139383691 0.104473711)
(-0.0082009179 0.00350721681 0.114999228)
(-0.00349810483 0.00484348783 0.0955774385)
(-0.00868140672 0.00978136979 0.117393249)
(-0.00537039454 0.000368626809 -0.00609539798)
(0.00784515754 -0.00200026534 -0.0687568094)
(0.00353522863 -0.00306002085 -0.0587018303)
(-0.0206969802 0.0014721287 -0.0303985781)
(-0.000285322887 0.00602309603 0.0791222789)
(0.00831647161 0.00840678927 0.123452492)
(-0.0115643553 0.006446707 0.0781722645)
(-0.0177688036 0.00469419345 0.110679225)
(-0.00297372558 -0.000751990487 -0.163793266)
(-0.008316057 0.00313257668 -0.0240982734)
(0.00141219122 0.0112507761 -0.115467903)
(0.0091362434 0.0024986148 -0.0411835457)
(-0.00864159764 -0.00545074126 0.0872306356)
(0.000772537015 0.000449536033 0.13637755)
(-0.00854153798 -0.000321534927 0.0971313726)
(-0.0146573987 6.00224617e-06 0.137394247)
(-0.00171650079 -0.00577716594 -0.0999308627)
(0.0012697378 -0.00494416824 -0.0414889239)
(-0.0116973152 -0.00658430446 -0.0887054686)
(-0.0209889691 -0.00393598726 -0.0276879765)
(-0.00252533132 -0.00193931101 -0.00597562062)
(0.0100321402 0.00254102362 0.119914247)
(-0.0145619735 0.00250761362 0.0518787647)
(-0.0214705947 -0.000378120095 0.0984337054)
(-0.00223346178 -0.0147614515 -0.106408929)
(-0.00241552771 0.00391888599 0.0058042303)
(0.00223002018 0.0118873832 -0.108891469)
(-0.00770503343 0.001032992 0.00379450762)
(-0.00738294887 -0.00588366474 0.0420419445)
(0.00652302726 0.000978012448 0.150021619)
(-0.0123422146 0.00251063982 0.0921698478)
(-0.0238661866 -0.00201689026 0.14195274)
(-0.00147033277 0.00704959211 -0.0946578753)
(0.00387779898 -0.00363645963 0.0230263663)
(-0.00450402605 -0.00573054509 -0.103963086)
(-0.0131372439 -0.00172037898 0.0249709605)
(-0.00268177795 -0.0103156431 -0.0893952275)
(0.0089816856 -0.00114019061 0.108281226)
(-0.0131113462 -0.00651967373 -0.00031777724)
(-0.0232803115 -0.00446588684 0.0673671562)
(-0.00510623647 -0.0223500192 -0.101608924)
(0.0111000709 -0.00439981048 0.0415645846)
(0.00572082276 -0.00561946851 -0.0298557332)
(-0.0133097109 -0.00891848208 0.0329718688)
(-0.0162741538 -0.000193741453 -0.104285793)
(0.0118019724 -0.001185947 0.134644835)
(-0.0126023184 0.00282568154 0.0848836043)
(-0.0305285005 -0.00204304741 0.106373825)
(-0.00626079957 0.0188436901 -0.0549987184)
(0.0167292955 0.00899658501 0.0535906859)
(0.00119111969 -0.00150216605 0.0259974949)
(-0.0191532066 0.00216544014 0.0598351038)
(-0.00353590154 0.00856592555 -0.11952103)
(0.0065410913 0.0068558661 0.0996814001)
(-0.00744912817 0.00211317814 -0.0310198788)
(-0.0186369603 -0.00501423369 0.0453557995)
(-0.0150017543 -0.00459719421 -0.0862423141)
(0.0101798604 -0.0254613153 0.0675843607)
(0.0150418514 -0.0213606441 0.0346539345)
(-0.0129031662 -0.0180598336 0.0557960679)
(-0.0254694517 0.00028776028 -0.183615336)
(0.0146175741 -0.00523253626 0.0721281529)
(0.00422802751 -0.00327095933 0.0762433776)
(-0.0331189541 -0.00225261012 0.0292201916)
(-0.0123674881 0.020032039 -0.0722819529)
(0.00867777909 0.0273765981 0.0779162113)
(0.00572786414 0.0138116218 0.059979103)
(-0.0145786034 0.0139548945 0.0815155791)
(-0.00695648134 -0.000638124724 -0.14462305)
(0.00219370478 0.00745479184 0.101896213)
(-0.00424122184 0.00296503427 -0.0110816556)
(-0.00909613746 -0.00120027754 0.0378608866)
(-0.00135870141 0.0148361193 -0.0293214343)
(-0.00410618585 -0.017224287 0.0434914389)
(0.0214158677 -0.0290453332 0.071716274)
(0.00578875065 -0.015022832 0.0876064653)
(-0.0104426758 0.00722325785 -0.173216874)
(-0.0262938468 0.00229420027 -0.0971610233)
(0.0302891319 -0.00539125156 0.0268197808)
(-0.00103238747 0.00138078435 0.0142125794)
(-0.00382035693 0.00552812261 -0.0233325105)
(-0.00995211906 0.0230410303 0.0505499184)
(0.0151193102 0.0249531427 0.0872143776)
(-0.00181915424 0.0164610902 0.118404169)
(-0.00106878112 0.00123617859 -0.136834545)
(-0.00496159839 0.004732821 0.082196954)
(0.0129000033 -0.00219703202 0.00406909772)
(0.00236380329 -0.000406084278 0.0153587167)
(0.00182107489 0.0171735412 -0.00447271122)
(-0.000957687789 0.00339718619 0.0847511838)
(0.0174654456 -0.011862568 0.0801265454)
(0.00831550087 -0.00306874164 0.106816001)
(0.00729422426 0.00488532082 -0.120970932)
(-0.0370363266 0.00759530776 -0.133742204)
(0.0152807962 -0.00316488947 -0.0539943749)
(0.0110482055 0.00118327759 0.00810832797)
(0.00439141392 -0.00530404626 0.0352763876)
(-0.0138845554 0.00639160423 0.0755272019)
(0.0104173255 0.0140022573 0.0978753483)
(0.00719752748 0.0124481645 0.144346793)
(0.00831194266 0.00329129985 -0.0938204535)
(-0.0168807797 -0.0018023293 -0.033021388)
(0.0208647031 -0.00463777288 -0.0308687492)
(0.0235512195 0.000364979336 -0.0183363176)
(-0.00371483069 0.0161657651 0.0290047027)
(-0.00581704987 0.0263645028 0.0734231458)
(0.00858248004 0.00612526375 0.112349772)
(0.0133053066 0.00352665592 0.113298648)
(0.0057747425 0.000823239181 -0.0829577161)
(-0.0281773327 0.0104361957 -0.131657872)
(-0.00584502732 -0.00128190082 -0.0439089838)
(0.0160820796 0.00212124827 -0.0351423241)
(0.00263502601 -0.00711946984 0.0862630287)
(-0.0125301881 -0.0229051956 0.0881244774)
(0.0124379013 -0.0127586173 0.11429585)
(0.0112609645 0.00304967504 0.146542359)
)
;

boundaryField
{
    vin_DB
    {
        type            cyclic;
    }
    pout
    {
        type            cyclic;
    }
    w_F
    {
        type            cyclic;
    }
    w_B
    {
        type            cyclic;
    }
    w_L
    {
        type            cyclic;
    }
    w_R
    {
        type            cyclic;
    }
}


// ************************************************************************* //
