/*--------------------------------*- C++ -*----------------------------------*\
  =========                 |
  \\      /  F ield         | OpenFOAM: The Open Source CFD Toolbox
   \\    /   O peration     | Website:  https://openfoam.org
    \\  /    A nd           | Version:  6
     \\/     M anipulation  |
\*---------------------------------------------------------------------------*/
FoamFile
{
    version     2.0;
    format      ascii;
    class       volVectorField;
    location    "2.74";
    object      U.particlesMean;
}
// * * * * * * * * * * * * * * * * * * * * * * * * * * * * * * * * * * * * * //

dimensions      [0 1 -1 0 0 0 0];

internalField   nonuniform List<vector> 
256
(
(-1.28168735e-05 0.00536232121 0.0181000563)
(-0.000884287348 0.00606804814 0.0102004533)
(0.00354170622 0.00170235943 0.000701365239)
(-0.000644591776 0.000853916441 0.0040994713)
(-0.00226020535 0.00262065862 0.013179721)
(6.98140277e-05 0.000139523886 0.00712508695)
(0.0064094537 -0.00181392735 0.0102573132)
(-0.000805428405 2.51770941e-06 0.0150651092)
(-0.00142545292 -0.00359502144 -0.006476006)
(0.0032109212 -0.00558549889 -0.014799641)
(0.00727331817 -0.00490199196 0.000558977843)
(-0.00298175555 0.000155075184 0.0119037116)
(-0.00144215667 -0.00192594278 0.0105107572)
(0.00153552268 -0.00403671918 0.00667349128)
(0.00370808167 -0.0025568016 0.0171580923)
(0.00167011027 0.00108481088 0.00749635417)
(0.000137124187 0.00401320246 0.0136812878)
(0.00231121735 0.00399965544 0.00516895312)
(0.00574572053 0.00248982121 0.00193109506)
(-0.00162364466 0.000413806442 0.00671638108)
(-0.00289167999 0.00263303829 0.0199955648)
(0.00139713084 -0.00104498949 0.00645080891)
(0.00578641527 -0.00221683057 0.0158608929)
(-0.00138293885 -0.000983490212 0.0227069141)
(-9.11001189e-05 -0.00238685613 -0.00920409248)
(0.00296161327 -0.00393443708 -0.020292325)
(0.00827145079 -0.00563080923 -2.10110751e-05)
(-0.00162590229 0.000614633752 0.0120910239)
(-0.0028197241 -0.00057562064 0.00619962953)
(-0.00131338671 -0.00216541742 -0.00091762755)
(0.00315891236 -0.0019830689 0.0142227779)
(-0.00158095298 0.00205812481 0.0124157533)
(0.000769671306 0.000767728613 0.0121125779)
(0.00336136433 0.00274147776 0.00528269)
(0.00510733054 0.000801687229 0.00423478783)
(-0.0017648046 0.000162930019 0.0103421423)
(-0.000327934326 0.00252335407 0.0219137327)
(0.0015266054 0.000280594174 0.00400780745)
(0.00557913197 -0.00130560543 0.0220783151)
(-0.00108950794 -0.000327078087 0.0285224001)
(0.000274865391 0.000844297037 -0.0101181077)
(0.00301883412 -0.00173926056 -0.0227596413)
(0.00610182394 -0.00429634639 0.0017184319)
(-0.00108766062 0.000628487361 0.0157167612)
(-0.0020238064 -0.00162886015 0.000549702708)
(-0.0023653066 -0.00338414406 -0.00596073796)
(0.00396042378 -0.00255217785 0.00883318946)
(-0.00209782471 0.00123354647 0.0187988577)
(0.000761259354 -0.00146664279 0.0079624698)
(0.00385266529 0.0014914719 -0.00270317808)
(0.000857014492 -0.00114114815 0.00983903673)
(-0.00364143529 -0.000973044607 0.0139833678)
(-0.000734548381 0.0037795686 0.0211447269)
(-0.000603997706 0.00369062921 0.00209800677)
(0.00192538629 0.00155156506 0.027826199)
(-0.00223311626 0.00145583352 0.0277388887)
(0.000731445587 0.00355549555 -0.00993218218)
(0.000765436281 0.000667950578 -0.0210356986)
(0.000507714789 7.75986836e-05 0.00446928763)
(-0.00261829049 0.000630834856 0.0176648806)
(0.000192488046 -0.00282972575 0.00753230791)
(-0.00125029673 -0.00452254947 -0.0134579827)
(0.0022822277 -0.00241895985 0.00937024707)
(-0.00108731261 0.000134959086 0.0249771301)
(0.00164028281 -0.00376831087 -0.00282136411)
(0.00156270859 -0.000800056782 -0.00843204827)
(-0.00300984145 -0.00253847093 0.0127955724)
(-0.00259852563 -0.00334745415 0.00751309139)
(5.91803511e-05 0.00582383718 0.0189963383)
(-0.00214497306 0.00481195121 0.0013704959)
(0.000191302565 0.00318690222 0.029790916)
(-0.000815721224 0.00369625383 0.0275453956)
(0.00180611427 0.00547355519 -0.00696190513)
(-0.00137268441 0.00305046898 -0.013240442)
(-0.00411081628 0.00205905391 0.00726909596)
(-0.0042472226 0.00213479936 0.0191038577)
(0.00532227875 -0.00420911471 0.0141200938)
(-0.000168324238 -0.00291827803 -0.0132153462)
(-0.00289652788 -0.000587269492 0.013892708)
(-0.000891099279 -0.00218837682 0.0227230485)
(0.000649913297 -0.00330294359 -0.00805752326)
(-0.00194190981 -0.00222377065 -0.00812055476)
(-0.00267828811 -0.00196805594 0.0128506847)
(-0.00112092889 -0.00369663519 -0.00145862448)
(0.000183808358 0.00464239859 0.011191266)
(-0.0030844239 0.00323580804 -0.000240157309)
(-0.000867102739 0.00310655386 0.0239171289)
(-0.000614252711 0.00390370366 0.0186770541)
(0.00167384789 0.00434199071 -0.00425108388)
(-0.00236358811 0.00450426113 -0.00529149026)
(-0.0047992767 0.0020234047 0.00911726277)
(-0.00425308183 0.00363177964 0.0206958712)
(0.00534546935 -0.00210773813 0.0169717449)
(-0.000913566694 0.000565438299 -0.00237978645)
(-0.00516852686 0.00295617361 0.0170418846)
(-0.00164869343 0.000171615651 0.0122006806)
(0.000307259457 -0.00367838052 -0.0031439239)
(-0.00447037984 -0.00321052657 -0.0073950361)
(0.000453135337 -0.00246887343 0.0164360126)
(0.000539631368 -0.00261275106 0.000479329891)
(0.00178653465 0.000532469999 0.0117195612)
(-0.0026715566 -0.000497965014 -0.0062577758)
(-0.000676965734 0.00125365688 0.0205429353)
(-0.00068204408 -0.000184065536 0.00823601454)
(0.00233440605 0.00275742035 0.00172135743)
(-0.0046159269 0.00524424429 -0.00177529253)
(-0.00795931063 0.001680347 0.012843956)
(-0.00249335216 0.00372742449 0.0222743512)
(0.00287683784 0.00250346717 0.0214742248)
(-0.00210027621 0.00309560652 0.00559994448)
(-0.00521551943 0.00378194282 0.0221777263)
(-0.00269851497 0.0046406992 0.00955674227)
(0.0016438767 -0.00495868143 0.00383464515)
(-0.00469165466 -0.0041799307 -0.00798617751)
(0.00101841525 -0.00366054775 0.0134823555)
(0.00153301645 -0.00519560321 0.00768260342)
(0.00259505492 -0.00439101821 0.00805908388)
(-0.00315412759 -0.00308846905 -0.0113127376)
(-0.000516974192 -0.00366494026 0.0168393617)
(-0.00140469543 -0.00564234583 -0.00132834729)
(0.00197569559 0.00149250593 -0.00215564436)
(-0.0076097623 0.003547006 0.000618583166)
(-0.0080068989 0.00113464134 0.00909323316)
(-0.000860932275 0.000437121841 0.00729398069)
(0.00169031656 0.00468859803 0.0240670171)
(-0.00248470065 0.00341936372 0.012133999)
(-0.00461421821 0.00226796298 0.0226394319)
(-0.00357144083 0.00667094742 0.00506777897)
(0.00282822691 -0.00602184305 0.0154357522)
(-0.0010673811 -0.00173002879 -0.00122717409)
(0.000577148183 -0.00396279354 0.0135254882)
(0.00048175029 -0.00595149934 0.0171639966)
(0.000351921673 -0.00481861545 0.00575777807)
(-0.001998779 -0.00340117693 -0.0112685653)
(0.000272252752 -0.00362126689 0.0107096128)
(0.000870282516 -0.00374553125 -0.00711825763)
(0.000143604764 -0.00238243952 -0.00165126254)
(-0.0079989576 -0.00019197402 0.00152183298)
(-0.00387902463 -0.00047014157 0.00125057974)
(0.0011688466 -0.00431715976 -0.00351098533)
(-0.000834293624 0.00305197427 0.0256067116)
(-0.00209152072 0.00404335207 0.0200901336)
(-0.00323161388 0.00247016081 0.0248843972)
(-0.00367423312 0.00497144287 0.00610065471)
(0.00240563656 -0.00379504037 0.0193336805)
(0.00160706099 0.000451739331 0.00961982892)
(0.000176273672 -0.00242783532 0.01784621)
(-0.00172999755 -0.00223243199 0.0232826087)
(0.00166973677 -0.00377400184 0.00473777893)
(-0.000605977518 -0.00292529881 -0.00911581539)
(0.00116215471 -0.000698133008 0.00816902066)
(0.00381206819 6.04085044e-05 -0.00192960974)
(0.000531802633 -0.00453359718 0.00857458888)
(-0.00432617656 -0.0041596286 -0.000597722308)
(-0.00189702603 -0.00244934279 -0.0086175996)
(0.00141013235 -0.00477640543 -0.00335459267)
(-0.00173194995 0.00100956807 0.018658994)
(-0.000915403711 0.00425146059 0.0203886059)
(-0.00154938451 0.00225100627 0.0260289523)
(-0.00145179304 0.00332485458 0.00732696653)
(0.000796377994 -0.00208544558 0.0179040525)
(0.000215004014 0.000244483749 0.0139285516)
(-0.00057841043 -0.00103628954 0.0196292906)
(-0.00233171301 0.000268606477 0.0231072633)
(0.000973012009 -0.00434143707 0.0054494045)
(-0.00359221432 -0.00212693553 -0.00714700052)
(0.000628093538 0.00171794321 0.00655570816)
(0.00306444372 -0.00133373196 -0.000585127659)
(0.00245912676 -0.00286560969 0.00901969806)
(-0.000361940085 -0.0049412992 -0.00224639138)
(-0.00248184865 -0.00228849317 -0.00857173519)
(-0.000292179542 -0.00153587551 -0.00583623453)
(0.000728959683 0.000148252921 0.0131045457)
(-0.00115640945 0.00280538543 0.0194488446)
(-0.00124247775 0.00218368823 0.0236757075)
(0.000823993072 0.0016145271 0.0065551243)
(0.00265941609 0.00049654656 0.0186314878)
(-0.00227522118 -0.0015893844 0.0157756831)
(-0.00139650335 0.000733636031 0.0164055025)
(-0.000807277472 0.00418801306 0.02189607)
(0.00218561007 -0.00180373623 0.00845618979)
(-0.00348636468 0.000751682927 -0.00613007445)
(-0.000733744932 0.00310699251 -0.00197145869)
(0.00246234486 0.00169638803 0.00517337599)
(0.00191879817 -0.000923795251 0.00198368511)
(0.000686375429 -0.00698800455 -0.0011092515)
(0.00111734119 -0.00263953882 -0.00948030202)
(-0.000357018338 -0.000318160782 -0.0166763872)
(0.0017354273 0.00106743183 0.0138803755)
(-0.00245482759 0.00151023894 0.0179691501)
(0.00042696996 0.00260585877 0.0189223266)
(0.00245541926 0.00322766014 0.00433111169)
(0.00359037466 0.00184307701 0.0229179366)
(-0.00373134403 -0.00161263074 0.0214975772)
(-0.00100888044 0.00130772644 0.0156856727)
(0.000849047216 0.00136666626 0.0164551264)
(0.0015912671 0.00212486613 0.00860795667)
(-0.00197716789 0.00122221149 -0.000529451632)
(-0.00104914952 0.000963636464 -0.00220581398)
(0.00056970757 0.00279088261 0.0109729904)
(-0.0015250065 0.00209856678 0.000827552473)
(-0.000426700321 -0.00423714558 0.00123943479)
(0.00489572127 -0.00134193688 -0.00724233625)
(-0.00116984642 -0.00028473056 -0.0128972165)
(0.000990489329 0.00273078611 0.0165804036)
(-0.00307301015 0.000990712985 0.0116625402)
(0.000668593348 0.00277269627 0.0158521549)
(0.00149042497 0.00156163661 0.00162665064)
(0.00502964909 0.00295830935 0.0279319385)
(-0.00202848236 0.000323583374 0.0239211753)
(0.00126171187 -0.000240373107 0.0154630948)
(0.000123137307 -0.00211604774 0.0147257071)
(0.00190899069 0.00434938025 0.00828869812)
(0.00103725338 0.0011023332 -0.00452683295)
(0.00061934344 -0.00122759939 -0.000443515986)
(0.000262919518 0.00266767244 0.00742638127)
(-0.00283305462 0.00278660706 0.00217759065)
(0.0010291381 0.000981202684 -0.00568297825)
(0.00675441747 0.000560141735 -0.00694892831)
(-0.00254075108 0.000117608598 -0.00835404913)
(0.0006977314 0.00285701856 0.0167022121)
(-0.00048408856 0.000732717006 0.011171801)
(0.00167778953 0.000557123804 0.0133011346)
(-0.00141301645 0.000321975186 0.000586032531)
(0.00341269699 0.00219635457 0.0276526883)
(-0.00223936013 0.00211834218 0.0235180242)
(0.00264095744 8.71457158e-05 0.0176932139)
(0.000656686574 -0.00204047039 0.0102703498)
(0.00230217141 0.00402064804 0.0091261435)
(0.00145963468 0.000371235923 -0.00161245454)
(0.0034832733 0.000444203381 0.00456393487)
(-0.00126821679 0.00321698494 0.00465070351)
(-0.00104668277 0.000954770034 0.00188516497)
(0.00319516393 0.000556982655 -0.0106414767)
(0.00714386362 -0.000663045734 -0.00567498369)
(-0.00141086761 -0.000262299795 -0.000287123655)
(0.000323578765 0.000544871495 0.0141070655)
(0.0032022672 -0.00124182469 0.0150953015)
(0.00300729401 -0.00203440352 0.0185442072)
(-0.00112981517 -0.00132935678 0.00246806753)
(0.00130147702 0.00307077263 0.0254638021)
(-0.00318522051 0.00505122183 0.0177693749)
(0.00227814451 0.00137646658 0.00958186699)
(0.0011708784 -0.000454729696 0.00848774978)
(-0.00101543914 0.00294734116 0.00641482959)
(0.000402571561 0.00112638801 0.00227854727)
(0.00508507916 0.000544707813 0.00684444216)
(-0.000976771288 0.00335940766 0.00742454387)
(-0.00201357681 -0.00146770539 -0.00145601479)
(0.0038111253 -0.00246267652 -0.0135357358)
(0.00579771346 -0.00332946322 -0.00303995113)
(-0.00231503834 6.28149104e-05 0.00894357602)
(-0.00103422889 -0.00214075841 0.0131894565)
(0.00369525197 -0.00415468072 0.015917994)
(0.00342326791 -0.00317382714 0.02123381)
(0.00253956052 -0.00044921137 0.00559340837)
)
;

boundaryField
{
    vin_DB
    {
        type            cyclic;
    }
    pout
    {
        type            cyclic;
    }
    w_F
    {
        type            cyclic;
    }
    w_B
    {
        type            cyclic;
    }
    w_L
    {
        type            cyclic;
    }
    w_R
    {
        type            cyclic;
    }
}


// ************************************************************************* //
