/*--------------------------------*- C++ -*----------------------------------*\
  =========                 |
  \\      /  F ield         | OpenFOAM: The Open Source CFD Toolbox
   \\    /   O peration     | Website:  https://openfoam.org
    \\  /    A nd           | Version:  6
     \\/     M anipulation  |
\*---------------------------------------------------------------------------*/
FoamFile
{
    version     2.0;
    format      ascii;
    class       volVectorField;
    location    "2.74";
    object      Ur;
}
// * * * * * * * * * * * * * * * * * * * * * * * * * * * * * * * * * * * * * //

dimensions      [0 1 -1 0 0 0 0];

internalField   nonuniform List<vector> 
256
(
(0.00178007234 0.00125749096 -0.10107691)
(-0.000767296206 0.00275445214 -0.0484326939)
(-0.00160859103 0.00216462882 -0.0937437056)
(0.000893499474 0.000849850864 -0.047536138)
(0.00533588329 0.00234410996 -0.124645309)
(-0.000628630745 -0.00431320555 -0.0643201801)
(-0.00524502376 0.00738436472 -0.128098996)
(0.000675218768 -0.00141286498 -0.101369643)
(0.000383543595 -0.00113539772 -0.0725604175)
(0.00214872161 -0.00303324271 -0.0657102735)
(-6.60355084e-05 -0.00195879652 -0.0490875091)
(-0.0018245478 -0.000814130165 -0.0441062167)
(0.00208092307 -0.0022525197 -0.135766599)
(-0.00168590351 0.00415562345 -0.0850186957)
(-0.00183972388 -0.00714210171 -0.140933695)
(0.00183053151 0.00144707753 -0.109158)
(0.00331017291 0.0020264908 -0.126949638)
(-0.0025088082 0.00126185428 -0.0611312668)
(-0.00328862511 0.00309942283 -0.128405349)
(0.00256236865 0.00196236124 -0.0626674115)
(0.00589391132 0.00187054055 -0.103651118)
(-0.00114352039 0.00270697733 -0.0368873107)
(-0.00593082014 0.00555099965 -0.109007324)
(0.00120511017 0.00238808472 -0.0727507325)
(0.00810051059 -0.00197682896 -0.116462735)
(0.000501692054 -0.00277901977 -0.0702432753)
(-0.00662221692 -0.00255090115 -0.0841237976)
(0.000835336637 -0.00191405976 -0.0539206335)
(0.0053678661 -0.00183991943 -0.122966768)
(-0.0021749778 -0.00423739029 -0.0612154396)
(-0.00539465058 -0.00513353296 -0.126333486)
(0.00229677515 -0.00236813024 -0.0841369465)
(-0.000483658604 0.000635142799 -0.121080027)
(-0.00262870283 -0.000633659423 -0.072541092)
(0.00110710962 0.000524423831 -0.121364346)
(0.00331352048 0.00205286134 -0.11166748)
(0.00127785195 -0.000386770671 -0.0870209501)
(-0.00101429697 0.00351297904 -0.0409033626)
(-0.00124650783 0.000947649944 -0.0911457878)
(0.00107774088 0.00176463457 -0.0470204146)
(0.00515870585 -0.000596225862 -0.123247954)
(-0.00139921984 0.000590869295 -0.0702194743)
(-0.00497124436 -0.000657270186 -0.124436998)
(0.00158832347 -0.00160825154 -0.0905851801)
(0.00509180841 0.000442002146 -0.110317167)
(-0.000931249878 -0.0035573593 -0.0354241004)
(-0.00496115327 -0.00104129562 -0.110701539)
(0.00115649927 -0.00135781066 -0.0621880395)
(-0.00903104286 -0.00231674928 -0.128270643)
(-0.00174087611 -0.00224398329 -0.070273183)
(0.00917241075 -0.00151230619 -0.128070291)
(0.00201690837 -0.000364406675 -0.0835051595)
(-0.00752848575 -0.000466115795 -0.0828828022)
(-0.000905751434 0.000116247782 -0.0446014925)
(0.00764679584 0.000585789446 -0.0864486726)
(0.00101444246 -0.000666378 -0.0366432958)
(-0.00708009742 0.00234852137 -0.127726382)
(-0.000843540269 0.00226245386 -0.0757947826)
(0.00711379977 0.00146995927 -0.128859063)
(0.000915516273 0.000399311782 -0.080674176)
(-0.00598682388 0.000522572786 -0.100852109)
(-0.0014651517 -7.98068618e-05 -0.0420298087)
(0.00608595529 -0.00063490701 -0.10350625)
(0.00154521736 0.000712677966 -0.0392367299)
(-0.00929276901 -0.00369415343 -0.136469865)
(-0.00143943498 -0.00309494865 -0.0931780474)
(0.00918183467 -0.00251943146 -0.138350848)
(0.0013426996 -0.000610859454 -0.0754771925)
(-0.012429827 0.00100921393 -0.0707888052)
(-0.00185039384 0.000234752664 -0.0440172007)
(0.0133722601 0.000257900095 -0.0818121231)
(0.0027104121 0.000948100927 -0.0473400407)
(-0.0104491359 0.00360063255 -0.134407902)
(-0.00223918466 0.00314172779 -0.0947622719)
(0.0102882994 0.00250099515 -0.139421906)
(0.00204868237 0.000600866651 -0.0723676626)
(-0.0110802495 -0.00106562967 -0.0780875405)
(-0.00275091909 -0.00019256321 -0.0419049459)
(0.0125203791 -0.000268080545 -0.0950547628)
(0.00406288718 -0.000955049159 -0.0463008293)
(0.000706036183 -0.00196632971 -0.132526549)
(-0.00219643512 -0.00470829707 -0.133153604)
(-0.000962063608 -0.00328235708 -0.135200292)
(0.00184739625 -0.00168872829 -0.114133804)
(-0.00579635373 0.000321624204 -0.0547371812)
(-0.00237371518 0.000612257359 -0.0577152743)
(0.00656655669 -4.15707874e-05 -0.0766112887)
(0.00300963403 0.000771303812 -0.0548563055)
(0.0011582878 0.00196515904 -0.132623981)
(-0.00261771156 0.00487721036 -0.135383462)
(-0.00165601284 0.00326995189 -0.135374983)
(0.00201501842 0.00153778364 -0.101578789)
(-0.00306720309 -0.000339072734 -0.0593158034)
(-0.0017254699 -0.00048349925 -0.0401036296)
(0.00405886713 3.64267223e-05 -0.0810091241)
(0.00263144765 -0.000916886711 -0.0548279148)
(0.00749559254 0.00385993492 -0.119351982)
(-0.000285785156 -0.00228453292 -0.136580154)
(-0.00772380205 -0.00160369143 -0.123945402)
(5.67286575e-05 -0.00154332287 -0.140793782)
(0.00161075994 -0.000316541923 -0.0382184356)
(-0.000269098157 0.000357514735 -0.0635320579)
(-0.00253449805 5.99928365e-05 -0.0515673942)
(-0.000660800475 -0.000563001807 -0.0513311171)
(0.00879739123 -0.00385570988 -0.120621301)
(0.000124279947 0.00239891604 -0.139906064)
(-0.00908072679 0.00158465153 -0.1232892)
(-0.000365139577 0.00157490733 -0.140237957)
(0.00376737224 0.00028793465 -0.0478008712)
(0.00216755271 -0.000263869989 -0.0436630488)
(-0.00410847734 -5.65299818e-05 -0.0465501556)
(-0.00250764641 0.000565985034 -0.0517181929)
(0.00284883923 0.0035493597 -0.103989882)
(0.0018624904 -0.00249789273 -0.139967713)
(-0.00289746786 0.00097106047 -0.102524068)
(-0.00189662524 -0.00338152928 -0.136437946)
(0.00284873556 0.000413509383 -0.0462190991)
(0.00259770887 0.00102029823 -0.0644323454)
(-0.00302707618 0.000707624543 -0.04023826)
(-0.00278479519 -6.12860535e-05 -0.0662748356)
(0.00397001741 -0.00361390449 -0.104361216)
(0.00193368964 0.00264199521 -0.145662894)
(-0.00394599032 -0.00094600899 -0.100323698)
(-0.00189669134 0.00339704956 -0.135084248)
(0.00284694397 -0.000440028129 -0.040093411)
(0.0038121684 -0.00088754489 -0.0491859611)
(-0.00367108975 -0.000697039171 -0.0416489222)
(-0.00471265937 5.99030333e-05 -0.0623419283)
(-0.000425983307 -0.00819048586 -0.0903733359)
(0.000204624846 -0.00330275458 -0.132325397)
(0.000408846254 -0.00283481961 -0.0887468671)
(-0.00024873893 -0.00740406267 -0.131404804)
(-1.25679596e-05 -2.47303645e-05 -0.047156386)
(0.00590959945 0.000541109712 -0.120753746)
(-2.46268413e-05 -0.000196659757 -0.0474057515)
(-0.00591219647 0.000378986834 -0.11736305)
(-0.000489329032 0.00805378529 -0.0908716726)
(-0.00040126626 0.00345716725 -0.139709693)
(0.000457935299 0.00273275974 -0.0875622055)
(0.0003389915 0.00747857099 -0.132582921)
(-0.00191976599 -0.000114539454 -0.0426248159)
(-0.000150911362 -0.000375863065 -0.0610560698)
(0.0019199137 0.000113515717 -0.0475529459)
(0.000153735913 -0.000249607465 -0.0587807072)
(-0.000768204825 -0.00641126913 -0.059813322)
(-0.00371836543 0.0013273425 -0.117773847)
(0.000864107362 -0.00242928566 -0.0673952284)
(0.00385022858 -0.000971488842 -0.121674444)
(-0.000578509158 -0.00168844214 -0.0690970762)
(-0.00106654763 -0.0020323855 -0.126805718)
(0.000486557251 -0.00172105429 -0.0437162421)
(0.0010115824 -0.00130937468 -0.125406753)
(-0.00185129988 0.00629848957 -0.0708326416)
(-0.00434844864 -0.00145950135 -0.125301605)
(0.00177510734 0.00249683228 -0.0717793472)
(0.00440747898 0.00084514274 -0.122656477)
(-0.00219995615 0.00150976875 -0.0453525528)
(-0.00306124522 0.0018239559 -0.116103621)
(0.00191227207 0.00176761225 -0.0490441317)
(0.00272259283 0.00112003423 -0.103021047)
(-0.00154362606 -0.000475993872 -0.0331256816)
(-0.00784229941 0.00313854589 -0.101466617)
(0.00154112723 0.000431782514 -0.045682999)
(0.00781934659 0.00343210446 -0.0989140629)
(-0.00112490877 -0.00089801147 -0.0782863699)
(-0.00941222987 -0.000941615577 -0.121478492)
(0.00118943589 -0.00285101597 -0.090936779)
(0.00942410025 -0.000344065486 -0.121069402)
(-0.00280831023 1.53902414e-05 -0.0400043777)
(-0.0117591959 -0.00337921071 -0.109490322)
(0.00236769048 -0.000952720133 -0.0634130167)
(0.0111538877 -0.00358182104 -0.0999720015)
(-0.000556839998 0.000422137211 -0.0630224336)
(-0.00776993864 0.000783954792 -0.12017574)
(0.000462179372 0.00231313911 -0.0811351112)
(0.00767900981 0.00025400862 -0.118841013)
(-0.00128737541 0.000824859551 -0.0432277435)
(-0.003183637 0.000969272649 -0.0874750553)
(0.00100869515 0.000401691174 -0.0367638702)
(0.00286601465 0.00179556124 -0.078138454)
(-0.000379701924 0.00162217032 -0.0722525059)
(-0.00521169895 0.00424380812 -0.124462913)
(0.000548159017 -0.00239977983 -0.123215213)
(0.00530855138 0.0036119306 -0.1258224)
(-0.00219296049 -0.000749684305 -0.0419702771)
(-0.0100275113 -0.00103693331 -0.086903517)
(0.000732897154 -0.00050095654 -0.0613126941)
(0.00833123517 -0.0017225477 -0.0681396723)
(0.000541934484 -0.00154120354 -0.0663804322)
(-0.00337097558 -0.00427869464 -0.121557609)
(-0.00069687898 0.00228772146 -0.119498663)
(0.00317646306 -0.00354981263 -0.122533973)
(0.00127383522 0.000493079559 -0.0478013447)
(0.00311789133 0.000770852188 -0.0805468255)
(-0.000944812831 -0.000814545879 -0.0409029014)
(-0.0027899069 0.00149465332 -0.0702002294)
(0.0032802499 -0.00322044004 -0.11455702)
(0.00749555822 0.00786271987 -0.114252232)
(-0.00406716931 0.00301482949 -0.128860891)
(-0.00824140453 0.00108431444 -0.127646483)
(0.00472195828 -0.000424085848 -0.048644534)
(0.0042271671 -0.000969745845 -0.0483381245)
(-0.00587602794 0.00095151506 -0.0597014621)
(-0.00533698109 -0.00143401778 -0.0588181306)
(0.00435909595 0.00337147812 -0.117262739)
(0.00924066157 -0.00811984323 -0.119441943)
(-0.00506971751 -0.00290415753 -0.122433933)
(-0.00991565067 -0.00100804352 -0.133246368)
(0.00186285865 0.00133399685 -0.050085694)
(0.00587538062 0.000192965159 -0.0693104319)
(-0.00119772179 0.000942780128 -0.0421656497)
(-0.00516280135 0.00183529269 -0.0582207255)
(0.00116591236 -0.00180228832 -0.13109309)
(0.00869481924 0.00278309035 -0.111719031)
(-0.00206146782 0.00206949913 -0.136860049)
(-0.0097170506 -0.00421671741 -0.132351862)
(0.00478214284 -0.00128523888 -0.0563380027)
(0.00677525284 -0.000315316757 -0.0462802737)
(-0.00553588397 -0.000910316937 -0.0510349262)
(-0.00764953813 -0.00165517631 -0.0611693896)
(0.00325543447 0.00187283504 -0.144425388)
(0.00923739313 -0.00292299279 -0.117328091)
(-0.00393843447 -0.00201813547 -0.132589092)
(-0.0100901879 0.00443113745 -0.140470605)
(0.00292975552 0.00199165793 -0.0656956236)
(0.00753951048 0.000797652217 -0.0441819055)
(-0.00204980102 0.00153470703 -0.043846543)
(-0.00669317032 0.0016527035 -0.0413840161)
(-0.0015620687 0.00114362062 -0.129971262)
(0.00454363858 -0.010492075 -0.115579838)
(0.00137916121 -0.00604677576 -0.140045182)
(-0.0046526147 -0.00458712428 -0.124643183)
(-0.00173296502 -0.0020074702 -0.0594002046)
(0.00201629197 -0.000738461584 -0.0457390346)
(0.00131864667 -0.001291973 -0.0490967846)
(-0.00243969821 -0.00144201619 -0.0481521415)
(-0.00133123955 -0.0011762558 -0.14171153)
(0.00545533262 0.0104718889 -0.119460709)
(0.000965058766 0.00632757912 -0.147472625)
(-0.00587532052 0.0048578967 -0.133223074)
(0.00311344663 0.00156969589 -0.0600245636)
(0.00344188943 0.00249885067 -0.0428350786)
(-0.00248973493 0.00070096675 -0.0479034232)
(-0.00285349971 0.000484062281 -0.0421070464)
(0.0028269201 0.00167940391 -0.13078365)
(0.00019419606 -0.0134215231 -0.0927160499)
(-0.00285847668 -0.00219183734 -0.136959167)
(-0.000210397562 -0.0039384323 -0.112278727)
(-0.00347656708 -0.00165799244 -0.0581127945)
(-0.000281901924 -0.00218282881 -0.0442952775)
(0.00350688092 -0.000665007514 -0.0586879315)
(0.000302344565 -0.000305055814 -0.0411534492)
(-0.000874816927 -0.00179526154 -0.141028196)
(0.00146507807 0.0137875574 -0.100737354)
(0.000842081312 0.00221024988 -0.149398609)
(-0.00158017071 0.00414148753 -0.120029796)
)
;

boundaryField
{
    vin_DB
    {
        type            cyclic;
    }
    pout
    {
        type            cyclic;
    }
    w_F
    {
        type            cyclic;
    }
    w_B
    {
        type            cyclic;
    }
    w_L
    {
        type            cyclic;
    }
    w_R
    {
        type            cyclic;
    }
}


// ************************************************************************* //
