/*--------------------------------*- C++ -*----------------------------------*\
  =========                 |
  \\      /  F ield         | OpenFOAM: The Open Source CFD Toolbox
   \\    /   O peration     | Website:  https://openfoam.org
    \\  /    A nd           | Version:  6
     \\/     M anipulation  |
\*---------------------------------------------------------------------------*/
FoamFile
{
    version     2.0;
    format      ascii;
    class       volVectorField;
    object      U;
}
// * * * * * * * * * * * * * * * * * * * * * * * * * * * * * * * * * * * * * //

dimensions      [0 1 -1 0 0 0 0];

internalField   uniform (0 0 0);

boundaryField
{
    topbottom
    {
        type            uniformFixedValue;
        uniformValue    constant (0 0 0);
    }

   front
    {
        type            empty;
    }

    back
    {
        type            empty;
    }

    inlet
    {
        type            uniformFixedValue;
        uniformValue    constant (1 0 0);
    }

    outlet
    {
        type            zeroGradient;
    }

    cylinder
    {
        type            uniformFixedValue;
        uniformValue    constant (0 0 0);
    }

    defaultFaces
    {
        type            empty;
    }
}

// ************************************************************************* //
