/*--------------------------------*- C++ -*----------------------------------*\
  =========                 |
  \\      /  F ield         | OpenFOAM: The Open Source CFD Toolbox
   \\    /   O peration     | Website:  https://openfoam.org
    \\  /    A nd           | Version:  6
     \\/     M anipulation  |
\*---------------------------------------------------------------------------*/
FoamFile
{
    version     2.0;
    format      ascii;
    class       volScalarField;
    location    "0";
    object      alpha.particles;
}
// * * * * * * * * * * * * * * * * * * * * * * * * * * * * * * * * * * * * * //

dimensions      [0 0 0 0 0 0 0];

internalField   nonuniform List<scalar> 
256
(
0.143895
0.146403
0.149965
0.155604
0.148379
0.147861
0.150357
0.151081
0.153158
0.152796
0.15113
0.146255
0.150302
0.153638
0.151234
0.148143
0.148472
0.149687
0.150719
0.154749
0.148776
0.147228
0.146299
0.147304
0.151896
0.152761
0.149362
0.14546
0.151308
0.156611
0.15323
0.150979
0.147153
0.148321
0.15152
0.155544
0.151308
0.151271
0.148335
0.151014
0.153132
0.155459
0.14621
0.14529
0.152133
0.157683
0.148912
0.147457
0.148255
0.148638
0.149052
0.14948
0.152743
0.153559
0.150117
0.150831
0.15421
0.1576
0.149525
0.147584
0.15228
0.158197
0.149925
0.144375
0.146015
0.147286
0.147111
0.146252
0.147434
0.151449
0.152192
0.150856
0.149582
0.155396
0.154295
0.150411
0.147742
0.153329
0.151925
0.148476
0.152171
0.150105
0.14855
0.148819
0.147546
0.150472
0.150458
0.150775
0.146483
0.152419
0.14951
0.147853
0.145807
0.150253
0.1473
0.147597
0.156702
0.152832
0.151617
0.152909
0.150731
0.150171
0.150192
0.150245
0.147846
0.152509
0.151855
0.151363
0.150217
0.153825
0.152322
0.152997
0.151193
0.149536
0.148718
0.149827
0.151842
0.150735
0.148375
0.149094
0.148808
0.150735
0.149458
0.14926
0.147813
0.150632
0.149729
0.151229
0.152671
0.151659
0.147399
0.146182
0.153789
0.154415
0.147152
0.146034
0.150455
0.152287
0.147973
0.14792
0.146942
0.149311
0.1493
0.153466
0.155626
0.155962
0.151782
0.14719
0.156156
0.156512
0.149249
0.147088
0.152583
0.153903
0.146585
0.146976
0.144803
0.147489
0.146516
0.154625
0.155277
0.157303
0.152414
0.149959
0.154053
0.155243
0.148996
0.149668
0.153967
0.151958
0.145783
0.148571
0.15465
0.152037
0.146766
0.152326
0.147975
0.151247
0.147233
0.143475
0.149597
0.151145
0.149184
0.147725
0.148067
0.145213
0.150375
0.154452
0.152054
0.147857
0.148548
0.154945
0.144721
0.148104
0.147361
0.145406
0.150693
0.150866
0.150717
0.149346
0.145971
0.147411
0.154921
0.1571
0.146726
0.14824
0.152376
0.158516
0.14704
0.148456
0.152235
0.154212
0.152624
0.153287
0.156441
0.15494
0.145486
0.148859
0.155936
0.156275
0.144876
0.148681
0.152381
0.152524
0.151297
0.149414
0.155927
0.156474
0.15471
0.154872
0.159009
0.155611
0.149459
0.150652
0.152887
0.151314
0.149412
0.149107
0.148756
0.147636
0.153643
0.151601
0.157915
0.159009
0.155296
0.154574
0.158487
0.157283
0.151689
0.1518
0.151162
0.14922
0.149339
0.150832
0.148855
0.146027
)
;

boundaryField
{
    bottom
    {
        type            cyclic;
    }
    top
    {
        type            cyclic;
    }
    lr1
    {
        type            cyclic;
    }
    lr2
    {
        type            cyclic;
    }
    vh1
    {
        type            cyclic;
    }
    vh2
    {
        type            cyclic;
    }
}


// ************************************************************************* //
