/*--------------------------------*- C++ -*----------------------------------*\
  =========                 |
  \\      /  F ield         | OpenFOAM: The Open Source CFD Toolbox
   \\    /   O peration     | Website:  https://openfoam.org
    \\  /    A nd           | Version:  6
     \\/     M anipulation  |
\*---------------------------------------------------------------------------*/
FoamFile
{
    version     2.0;
    format      ascii;
    class       volVectorField;
    object      X_uu;
}
// * * * * * * * * * * * * * * * * * * * * * * * * * * * * * * * * * * * * * //

dimensions      [0 -3 0 0 0 0 0];

internalField   uniform (0 0 0);

boundaryField
{
    in
    {
        type            fixedValue;
        value           uniform (0 0 0);
    }

    out
    {
        //type            zeroGradient;
        type            fixedGradient;
        gradient        uniform (0 0 0);
    }

    cylinder
    {
        type            fixedValue;
        value           uniform (0 0 0);
    }

    sym1
    {
        type            symmetryPlane;
    }

    sym2
    {
        type            symmetryPlane;
    }

    back
    {
        type            empty;
    }

    front
    {
        type            empty;
    }
}

// ************************************************************************* //
