/*--------------------------------*- C++ -*----------------------------------*\
  =========                 |
  \\      /  F ield         | OpenFOAM: The Open Source CFD Toolbox
   \\    /   O peration     | Website:  https://openfoam.org
    \\  /    A nd           | Version:  6
     \\/     M anipulation  |
\*---------------------------------------------------------------------------*/
FoamFile
{
    version     2.0;
    format      ascii;
    class       volVectorField;
    location    "195";
    object      U;
}
// * * * * * * * * * * * * * * * * * * * * * * * * * * * * * * * * * * * * * //

dimensions      [0 1 -1 0 0 0 0];

internalField   nonuniform List<vector> 
9200
(
(-0.040234964 0.03054058 8.4931995e-20)
(-0.082538998 0.051480924 -1.5363537e-19)
(-0.086085435 0.056256468 6.9378884e-20)
(-0.047604552 0.052712607 1.2438953e-19)
(0.046922602 0.046818269 -1.1273728e-19)
(0.20293569 0.038319887 0)
(0.41679608 0.028459622 0)
(0.67374534 0.019721661 1.5034316e-19)
(0.93253085 0.011598938 -1.1181255e-21)
(1.1496326 0.0042553174 -1.1957643e-19)
(1.3121777 -0.003352845 -5.3015293e-20)
(1.4219315 -0.013379025 9.5976528e-20)
(1.4807265 -0.02562081 -1.6774808e-21)
(1.5084173 -0.040141203 -7.9433603e-20)
(1.519575 -0.056464335 0)
(1.5167948 -0.075835235 1.5073813e-19)
(1.5045882 -0.093400154 -2.1837709e-19)
(1.483776 -0.1104833 5.156776e-20)
(1.4598593 -0.12492835 4.6207954e-20)
(1.4300248 -0.14435025 3.4375197e-20)
(-0.049926675 0.032135355 2.4964194e-21)
(-0.080123186 0.056908944 7.8905473e-20)
(-0.053305143 0.055552573 1.4253657e-19)
(0.039066819 0.046239263 0)
(0.20306174 0.034786098 0)
(0.43455066 0.025842811 0)
(0.71392673 0.019373612 0)
(0.98425304 0.016092808 -1.1024229e-19)
(1.1985084 0.016650917 1.3277515e-19)
(1.3493283 0.016422887 5.7173027e-20)
(1.4438941 0.012599315 -5.2578467e-20)
(1.4909088 0.00551326 4.5381654e-20)
(1.5089075 -0.0042638646 -4.0201818e-20)
(1.5157042 -0.016675027 -3.6161658e-20)
(1.5113998 -0.032310979 2.2418261e-19)
(1.4981281 -0.047123415 -1.4686995e-19)
(1.4795749 -0.061423033 -2.4196439e-20)
(1.4578269 -0.075917174 -3.120315e-21)
(1.4367365 -0.087369996 -3.8953577e-20)
(1.4127148 -0.10275777 -3.4460282e-20)
(-0.053426655 0.031800514 -8.7048669e-20)
(-0.063050819 0.050500057 -8.235059e-20)
(0.0088945095 0.046481466 7.3054561e-20)
(0.16864522 0.035360341 -1.2958632e-19)
(0.41070928 0.027523275 0)
(0.71141229 0.025377146 0)
(1.0009952 0.030578617 0)
(1.2229243 0.037032622 -3.6680987e-20)
(1.3709748 0.041070223 0)
(1.4574846 0.040834479 5.730973e-20)
(1.4974993 0.036497558 -4.959182e-20)
(1.5098798 0.029579031 -1.7594886e-19)
(1.5127472 0.019388538 1.5881756e-19)
(1.5068253 0.006668101 3.1887645e-20)
(1.4926209 -0.0058532926 -6.430924e-20)
(1.474768 -0.018981531 -1.2996007e-19)
(1.4562188 -0.031734923 2.9726143e-20)
(1.4366737 -0.044235388 2.0541241e-19)
(1.4181419 -0.054180082 -1.0712266e-19)
(1.3969629 -0.067790809 0)
(-0.049236395 0.029545154 9.1737199e-20)
(-0.026895543 0.036889407 1.6799053e-19)
(0.10523267 0.030956897 1.496801e-19)
(0.34375948 0.02627274 -1.9389554e-19)
(0.66030295 0.031346371 1.9145754e-21)
(0.98065872 0.044889094 1.936893e-19)
(1.2231745 0.057859983 -8.5390001e-20)
(1.3791662 0.066772858 3.6418472e-20)
(1.4654058 0.069934928 0)
(1.5026645 0.067746502 -2.7588862e-20)
(1.5125117 0.06246911 1.4497253e-19)
(1.512437 0.053734802 -1.6964217e-19)
(1.5043738 0.042905483 -7.128362e-20)
(1.4889547 0.031727711 6.7625608e-20)
(1.4716214 0.019686421 -8.5777112e-20)
(1.4542297 0.0076207345 7.786826e-20)
(1.4370031 -0.0037005886 0)
(1.4190412 -0.014768598 0)
(1.4018845 -0.023832004 1.8271508e-20)
(1.3829107 -0.036018642 0)
(-0.037454195 0.021892354 9.5191266e-20)
(0.032254503 0.019874427 -1.3107738e-19)
(0.24063276 0.018591026 -1.5066736e-19)
(0.55963787 0.029292935 0)
(0.91523849 0.053758368 -5.6905855e-20)
(1.1949276 0.076899935 -4.6038623e-20)
(1.3721965 0.092631835 1.2501568e-19)
(1.4669604 0.099953637 -1.1034782e-19)
(1.5065648 0.10001756 6.1178948e-20)
(1.5155935 0.096049292 -2.864363e-20)
(1.5139297 0.088323361 0)
(1.5035368 0.078630478 6.2454181e-20)
(1.4870701 0.068021095 3.6904494e-20)
(1.4697168 0.056458749 6.1133174e-20)
(1.452976 0.045010428 -5.6511833e-20)
(1.4363742 0.033897049 -4.6145066e-20)
(1.4197316 0.023285024 4.2672736e-20)
(1.4028929 0.012973231 -1.7282005e-20)
(1.3867936 0.0042331749 1.597616e-20)
(1.3696189 -0.007042586 5.1030543e-20)
(-0.01814565 0.013642675 2.0105798e-19)
(0.11864948 0.0076240283 -6.6242765e-22)
(0.41276386 0.017898602 0)
(0.79553552 0.052197184 9.8772286e-20)
(1.1294224 0.089993651 -3.0217336e-20)
(1.3458048 0.11624238 -4.8050323e-20)
(1.4608094 0.12994817 2.2239243e-21)
(1.5085926 0.13312851 3.8322533e-20)
(1.5190684 0.13073967 3.0609094e-20)
(1.5168226 0.12419503 -2.6316884e-20)
(1.5047262 0.11475089 -4.4825936e-20)
(1.4870175 0.10416619 -5.6731287e-20)
(1.4691277 0.092794876 8.8752077e-20)
(1.4522584 0.081533293 7.293833e-20)
(1.4357529 0.070442211 -7.9015325e-20)
(1.4194247 0.059632589 4.6623938e-20)
(1.4033124 0.049222008 0)
(1.3874856 0.03922969 1.1527899e-21)
(1.3722425 0.0304285 -3.976829e-20)
(1.3566433 0.01977995 5.1660721e-20)
(0.013947547 0.0047258562 -5.4854384e-20)
(0.23298692 0.0037615221 2.5292558e-21)
(0.60942317 0.03656963 -4.0647774e-20)
(1.0105016 0.092240314 -9.8815428e-20)
(1.2895512 0.1348727 8.663835e-20)
(1.4419006 0.15887494 4.7067342e-20)
(1.5067256 0.16755929 -8.4492939e-20)
(1.5223739 0.16697384 -3.2854062e-20)
(1.5204924 0.16222186 6.2451004e-20)
(1.507463 0.1527168 7.6963519e-20)
(1.4882658 0.141685 -1.1210893e-19)
(1.4694549 0.12999336 4.0139426e-20)
(1.4519775 0.11838963 -4.9294391e-20)
(1.4350965 0.10694467 1.5030028e-20)
(1.4186343 0.09571349 -2.5458804e-20)
(1.4026343 0.084767624 4.1114307e-20)
(1.3871219 0.074219554 -2.658217e-21)
(1.3721763 0.064216421 -4.8982789e-20)
(1.357696 0.055032962 1.4006829e-20)
(1.3434975 0.044835144 0)
(0.057574309 -0.0056251935 5.4620762e-20)
(0.37147824 0.012425396 -1.2051069e-19)
(0.81237492 0.076032192 8.1307838e-20)
(1.1835031 0.1434198 1.5929437e-20)
(1.3997966 0.18480959 -8.5692965e-20)
(1.4967721 0.20285455 5.0739287e-20)
(1.5247528 0.20617926 0)
(1.525052 0.20264918 0)
(1.5118893 0.19300693 -3.0226981e-20)
(1.4909013 0.18136284 0)
(1.4705685 0.16895496 6.4197485e-20)
(1.4519566 0.15664091 -7.4690206e-20)
(1.4342937 0.14444721 6.3912704e-20)
(1.4173737 0.13241343 -2.8397834e-20)
(1.4011136 0.12065185 0)
(1.3855349 0.10925479 0)
(1.3706636 0.098307433 0)
(1.3565121 0.08800337 -2.8259979e-20)
(1.3428214 0.078206787 3.2129543e-20)
(1.3298063 0.068342898 0)
(0.11175797 -0.010344928 2.9230556e-20)
(0.52367383 0.040346672 -9.7813994e-22)
(0.9923979 0.13165034 0)
(1.3123279 0.20220223 -7.6527029e-21)
(1.4688558 0.23768774 1.5816933e-20)
(1.5219733 0.24804318 2.34281e-20)
(1.528983 0.24672223 -2.1528657e-20)
(1.5164812 0.23739131 -8.0672727e-21)
(1.4943343 0.22477785 8.1316117e-21)
(1.4722198 0.21099162 0)
(1.4520554 0.19737089 2.0171568e-20)
(1.4332253 0.18389219 -2.2948846e-20)
(1.4155187 0.17060671 -1.457605e-20)
(1.3987477 0.15762579 1.65703e-20)
(1.3828153 0.14505529 5.2903875e-21)
(1.3677268 0.13298031 -9.7618954e-21)
(1.353537 0.12143239 0)
(1.340153 0.11058176 0)
(1.3273442 0.10004462 -1.7158454e-20)
(1.3152496 0.090389995 1.0276951e-20)
(0.17635226 -0.0043889602 0)
(0.67918207 0.088984599 0)
(1.1381607 0.19923984 0)
(1.4006502 0.26645418 -3.0883387e-22)
(1.5057034 0.29203344 -4.8021716e-23)
(1.5289309 0.2950351 6.1483221e-22)
(1.5204937 0.28707077 5.3375863e-21)
(1.4983514 0.27314244 -8.5879009e-21)
(1.4741406 0.25734476 1.4012408e-20)
(1.45182 0.24174369 -6.2588001e-21)
(1.431355 0.22638115 0)
(1.4125005 0.21130778 4.3612509e-21)
(1.3949656 0.19663979 0)
(1.3785334 0.18245336 -3.1339985e-21)
(1.363108 0.16882472 5.32048e-21)
(1.3486973 0.15580103 0)
(1.3352641 0.14347542 0)
(1.3226625 0.13189761 0)
(1.3108136 0.12056767 0)
(1.2994743 0.11098788 -2.1257233e-21)
(-0.0018437204 0.12904639 -5.7032333e-21)
(-0.0042968753 0.31443362 0)
(-0.018319792 0.42513338 0)
(-0.041165382 0.48248472 -1.6930462e-20)
(-0.066326138 0.51819795 3.1060048e-20)
(-0.088606438 0.54875064 1.7938654e-22)
(-0.10571191 0.57691001 -6.6754602e-21)
(-0.11555223 0.59972607 -1.2801866e-20)
(-0.11734105 0.61245349 -3.4513735e-22)
(-0.11072039 0.61377319 1.1577939e-20)
(-0.095601885 0.60352458 0)
(-0.070484509 0.57456703 1.130675e-20)
(-0.034507708 0.52368217 0)
(0.011807064 0.4496794 -1.0803153e-20)
(0.066429308 0.35487511 2.0843445e-20)
(0.12769711 0.24249371 0)
(0.19242539 0.11717106 0)
(0.25683884 -0.018046405 0)
(0.3138782 -0.16231885 0)
(0.37503549 -0.32797436 1.3312016e-20)
(-0.0085421046 0.1165138 -2.2804794e-20)
(-0.008565046 0.30660962 4.1161681e-20)
(-0.011832197 0.42929771 0)
(-0.018251742 0.49874979 5.8736361e-20)
(-0.026458558 0.53882302 -4.6147416e-20)
(-0.032591316 0.56663429 -2.9099411e-20)
(-0.033003361 0.58797946 -8.8479519e-22)
(-0.025268471 0.6006513 6.4158178e-20)
(-0.0085400401 0.60467973 -3.6268689e-20)
(0.017069107 0.59687065 0)
(0.052868198 0.57340797 0)
(0.099260097 0.5316804 -1.121725e-20)
(0.15563728 0.46920885 4.5190041e-20)
(0.21997642 0.38596519 -3.0936042e-20)
(0.28958439 0.28418305 -6.2626703e-20)
(0.36182543 0.16722731 3.8810436e-20)
(0.43320569 0.040332459 0)
(0.49974548 -0.089976411 0)
(0.55893317 -0.2272055 3.063165e-20)
(0.63230997 -0.38950526 -5.587475e-20)
(-0.013191339 0.093509537 4.5228737e-20)
(-0.013856679 0.27414064 -2.0352822e-20)
(-0.0077875683 0.40888588 -4.3266907e-22)
(-0.0011157913 0.49103252 -4.9574578e-20)
(0.0061395624 0.53674278 9.0707806e-20)
(0.016932275 0.56318579 -5.5320375e-20)
(0.034096403 0.57874753 0)
(0.059352124 0.58465681 0)
(0.093798246 0.57930671 -4.5953915e-20)
(0.13831408 0.56157268 0)
(0.19300561 0.52883579 -4.8122533e-20)
(0.25712995 0.47890687 1.7203948e-19)
(0.32903111 0.41060959 -1.6776723e-19)
(0.40604745 0.32457675 7.9429491e-20)
(0.48512137 0.22293943 0)
(0.56383404 0.1090584 0)
(0.63627137 -0.0091165355 0)
(0.70609799 -0.1325946 1.2943612e-19)
(0.77474955 -0.26773789 -8.8278791e-20)
(0.86970162 -0.42961115 0)
(-0.014621699 0.067043605 -4.5320678e-20)
(-0.017992467 0.22258893 6.8291638e-22)
(-0.0081284392 0.36084156 -3.6179823e-20)
(0.0087407168 0.45503136 3.2610885e-20)
(0.029551437 0.50904788 -2.9643751e-20)
(0.054638805 0.53722087 0)
(0.086429839 0.5497615 -4.8494102e-20)
(0.12692272 0.54915461 4.5351782e-20)
(0.17665451 0.53611863 2.7994332e-21)
(0.23613622 0.5107538 -4.6526094e-20)
(0.30489064 0.47172596 1.2241051e-19)
(0.3815465 0.41773508 -7.7767623e-20)
(0.46383735 0.34848666 4.2803833e-20)
(0.54871696 0.26515828 -1.0979698e-19)
(0.63338162 0.16970911 -6.9590514e-20)
(0.71471218 0.065797278 -1.3983592e-19)
(0.79518158 -0.045979495 -2.1680435e-21)
(0.88050552 -0.16739019 6.1592618e-20)
(0.97539163 -0.30671504 5.1147911e-20)
(1.0917804 -0.4591398 0)
(-0.012303727 0.041618074 -1.7676064e-19)
(-0.019955284 0.16305213 1.6007712e-19)
(-0.012880191 0.29207953 0)
(0.0074652227 0.39207952 -3.0794033e-20)
(0.036727027 0.45419022 8.3447006e-20)
(0.07279643 0.4866421 -5.0118665e-20)
(0.11706991 0.49904212 1.8945218e-19)
(0.16967582 0.49526387 -2.2120231e-19)
(0.23105966 0.47768374 1.242294e-19)
(0.3014524 0.44735518 -4.0962696e-20)
(0.37986503 0.40444696 7.7559178e-20)
(0.46431324 0.34919852 4.4260606e-20)
(0.55234075 0.28235747 -1.0092169e-19)
(0.64175667 0.20427315 -1.0447529e-19)
(0.73319765 0.1163096 3.3079056e-19)
(0.82961694 0.019137348 -1.2193737e-19)
(0.93700466 -0.09065978 0)
(1.0603026 -0.21437158 2.121373e-19)
(1.1873586 -0.35280663 3.9166009e-20)
(1.2878979 -0.46223615 -1.7063487e-19)
(-0.0083894416 0.021686841 -8.6666581e-20)
(-0.021207873 0.109084 -3.8794082e-20)
(-0.021895963 0.21540011 -6.9202392e-20)
(-0.0054480696 0.31004581 0)
(0.02511071 0.3745642 -5.5963308e-20)
(0.066378843 0.41031792 1.4888311e-19)
(0.11862126 0.42406814 -2.2533858e-19)
(0.18024819 0.41925544 4.2128425e-20)
(0.25061981 0.39943243 -7.7538279e-20)
(0.32887451 0.36719295 1.0563462e-19)
(0.41372547 0.32426119 0)
(0.50393583 0.27112263 9.8795497e-20)
(0.60104869 0.20775681 6.175631e-20)
(0.7094805 0.13521567 -1.2664144e-19)
(0.8328368 0.052206382 1.1509478e-19)
(0.97438555 -0.04451792 1.126398e-19)
(1.1339154 -0.15743075 -1.0248482e-19)
(1.2761378 -0.26778783 -4.9666295e-20)
(1.3759953 -0.36744255 3.8393574e-20)
(1.4275539 -0.42481139 -1.3753195e-19)
(-0.0057372223 0.010186022 -8.5485808e-20)
(-0.02532494 0.06862749 1.5588491e-19)
(-0.035845736 0.14677025 1.2603282e-21)
(-0.028691787 0.22246927 1.829152e-19)
(-0.0033661704 0.27942876 -2.6010605e-21)
(0.036975665 0.31290897 -1.9211439e-19)
(0.091669623 0.32562573 1.0897086e-21)
(0.15784197 0.32022571 1.1821835e-19)
(0.234333 0.30067089 0)
(0.32127954 0.27023467 -3.5036159e-20)
(0.42113611 0.22910983 -6.853138e-20)
(0.54009563 0.17916615 2.4041648e-19)
(0.68130306 0.12056726 -1.1132015e-19)
(0.84654442 0.050287949 -1.0913764e-19)
(1.0300037 -0.032553549 5.7041047e-20)
(1.21027 -0.12252079 -5.1149172e-20)
(1.3549836 -0.20720943 0)
(1.4440335 -0.27396711 0)
(1.4833055 -0.33273612 1.6302207e-19)
(1.4912677 -0.36298206 -1.2537816e-19)
(-0.0071369012 0.0077882486 -8.367664e-20)
(-0.035755037 0.044947309 -7.7612553e-20)
(-0.055842073 0.096010788 -2.0481593e-19)
(-0.058574758 0.14656939 1.232759e-19)
(-0.041230994 0.18489319 0)
(-0.0036633299 0.20829771 9.3566338e-20)
(0.052706633 0.21565678 -8.5246215e-20)
(0.12782161 0.2095849 -3.7672817e-20)
(0.22531324 0.19114344 0)
(0.35164549 0.16242041 6.3829284e-20)
(0.50910583 0.1264138 -6.1691169e-20)
(0.69659565 0.081165123 2.4765787e-21)
(0.90457223 0.026052652 2.7748289e-21)
(1.1131678 -0.035954554 -1.5197399e-19)
(1.2865359 -0.096184637 -9.1164571e-20)
(1.4128216 -0.15144235 2.9874679e-19)
(1.485624 -0.19944841 3.2003374e-20)
(1.5111859 -0.23590068 -2.1135586e-19)
(1.5131386 -0.27585062 5.8951187e-20)
(1.5040763 -0.2960209 0)
(-0.015040089 0.012754063 4.035341e-22)
(-0.052803816 0.037681581 -7.6326814e-20)
(-0.079023676 0.066690679 1.3706167e-19)
(-0.085323251 0.093729082 0)
(-0.066272455 0.11195814 0)
(-0.02023943 0.12308353 0)
(0.05855024 0.12263747 0)
(0.17787534 0.11204183 1.8878977e-19)
(0.33905197 0.094827552 -1.3592445e-19)
(0.5389149 0.071107896 -6.2551733e-20)
(0.76571607 0.040290606 5.7350408e-20)
(0.99629797 0.0042442688 5.4660644e-20)
(1.1962198 -0.032353241 -5.1366127e-20)
(1.3486441 -0.067765485 1.4028816e-19)
(1.4489799 -0.10185327 -2.0758621e-19)
(1.5020819 -0.13386775 1.1792158e-19)
(1.5223126 -0.16269726 9.6758201e-20)
(1.5226533 -0.19219339 -3.6125799e-19)
(1.5120703 -0.2206388 1.5754982e-19)
(1.4885192 -0.23571172 -4.2396733e-20)
(-0.027524327 0.021632544 1.1814609e-22)
(-0.071247897 0.041556038 2.2797774e-19)
(-0.092487708 0.055497614 -2.0607667e-19)
(-0.086840384 0.064235674 -1.2152415e-19)
(-0.04553911 0.069124741 1.1096708e-19)
(0.041906357 0.066495976 0)
(0.18287057 0.059418036 0)
(0.3735902 0.048911364 -1.5120818e-19)
(0.60584195 0.034494215 -5.8755599e-22)
(0.85589431 0.01678483 1.2124066e-19)
(1.0816288 -0.0014212265 -5.5756551e-20)
(1.2629795 -0.019854816 -1.0153289e-19)
(1.3918424 -0.03935027 -3.9355242e-23)
(1.4687341 -0.060019755 8.4744664e-20)
(1.507766 -0.081768007 0)
(1.5237035 -0.10370511 -9.7594704e-20)
(1.5225836 -0.1280156 2.4157629e-19)
(1.5113197 -0.15062314 5.0892002e-20)
(1.4886284 -0.17015448 -1.4519936e-19)
(1.4599861 -0.18347949 4.2628498e-20)
(0.440192 -0.52311444 -9.0798432e-21)
(0.50174348 -0.70343872 2.3702376e-22)
(0.55101689 -0.82659681 -1.8888722e-22)
(0.5857395 -0.88541666 1.4653403e-22)
(0.60510052 -0.89766482 0)
(0.60784628 -0.88140029 -2.7733018e-21)
(0.59192514 -0.83691813 2.6850595e-21)
(0.54808153 -0.80942988 -2.3122782e-21)
(0.48360074 -0.79666796 2.3062586e-21)
(0.43948042 -0.72481237 -1.4381329e-22)
(0.44058482 -0.5264753 0)
(0.51384432 -0.19811827 2.8695937e-21)
(0.62359814 0.15690063 -5.3372371e-21)
(0.72148759 0.42533773 4.6735145e-21)
(0.79811629 0.58878635 -3.6332059e-21)
(0.85009053 0.66519566 1.5680368e-21)
(0.87699508 0.68603787 0)
(0.88317496 0.68172001 -9.7864618e-22)
(0.87257096 0.67099392 8.9103253e-22)
(0.84424252 0.67121183 9.7100675e-22)
(0.80654702 0.66174404 -9.3942093e-22)
(0.76766351 0.58287072 1.2517915e-21)
(0.74677754 0.33642192 -1.1827126e-21)
(0.76437858 -0.026626949 0)
(0.80676893 -0.32821805 0)
(0.85116213 -0.5007879 0)
(0.88224702 -0.57355132 0)
(0.89294819 -0.59047313 2.7279979e-22)
(0.88041231 -0.58350114 -1.4447976e-22)
(0.84168299 -0.55166586 0)
(0.79202565 -0.4434698 -1.4054728e-22)
(0.76217505 -0.20244955 0)
(0.77367961 0.10937845 -1.5342673e-22)
(0.80610358 0.34499084 4.2089748e-22)
(0.83140665 0.47488289 1.8706026e-22)
(0.84321484 0.51848662 -2.5992659e-22)
(0.83931376 0.50082277 -1.6918248e-22)
(0.81731788 0.36637843 -3.0527308e-23)
(0.80764895 0.079855179 -1.2022045e-22)
(0.81832293 -0.20642832 1.371079e-23)
(0.82500843 -0.37092254 2.1305704e-23)
(0.8227634 -0.4186608 1.3349356e-22)
(0.80732829 -0.37404929 0)
(0.79038535 -0.15714363 0)
(0.78591166 0.12655058 0)
(0.78743056 0.28267705 -5.960605e-23)
(0.7882578 0.30892659 2.1627741e-24)
(0.78298506 0.22227199 -6.3225684e-23)
(0.77940759 -0.027537459 -6.6524081e-23)
(0.76064804 -0.13743023 -1.3355965e-24)
(0.69405265 -0.57781058 3.4128177e-20)
(0.73496381 -0.74598758 -3.3239791e-20)
(0.75312165 -0.8510282 2.2659839e-20)
(0.75454008 -0.89980085 -4.191826e-21)
(0.73903789 -0.89730154 -2.9535678e-20)
(0.70602362 -0.86128314 1.2540948e-20)
(0.66245042 -0.80266313 0)
(0.61213876 -0.75286851 -6.9627671e-23)
(0.5354626 -0.73308053 0)
(0.45126198 -0.69468034 -8.60297e-23)
(0.4195508 -0.55062067 -9.3219498e-21)
(0.44629154 -0.27204028 8.8307463e-21)
(0.53966564 0.06562045 0)
(0.6404079 0.34581472 -3.5315651e-22)
(0.72822247 0.53022149 -1.7958441e-22)
(0.79645229 0.62897224 0)
(0.84079895 0.66943134 3.8022647e-21)
(0.86358736 0.67796655 -7.3247594e-21)
(0.86634361 0.67899822 3.4740234e-21)
(0.85462863 0.68702958 0)
(0.83466744 0.67881399 0)
(0.81292928 0.60102998 1.6493347e-22)
(0.80561792 0.34675546 -7.580966e-21)
(0.82860804 -0.033239365 2.327748e-22)
(0.86509452 -0.34460043 6.2659261e-21)
(0.89674524 -0.51507562 0)
(0.91394998 -0.5797991 1.3812208e-21)
(0.91361834 -0.58757988 -1.1939504e-21)
(0.88799289 -0.57007777 -1.1983418e-22)
(0.83688014 -0.53277856 2.1297296e-22)
(0.77796548 -0.4283016 -9.9764782e-23)
(0.74453976 -0.2004427 -2.7279024e-22)
(0.75291939 0.097709591 -1.4855072e-21)
(0.7876188 0.33152898 6.7556723e-22)
(0.82031875 0.46625144 0)
(0.84108463 0.51567832 8.6513866e-22)
(0.84692769 0.50231441 -4.5082542e-23)
(0.83833885 0.37298984 -5.0862403e-22)
(0.83725406 0.082087537 -2.5603687e-22)
(0.84644882 -0.20718969 2.1781036e-22)
(0.84587752 -0.36970749 0)
(0.83404749 -0.41604195 -2.2587588e-22)
(0.80712001 -0.36918154 1.3968847e-22)
(0.78083454 -0.15389273 -1.4156157e-22)
(0.77578897 0.12575637 1.9970621e-23)
(0.78276198 0.28115018 4.877389e-23)
(0.78940999 0.3083287 7.0760903e-23)
(0.79279346 0.22317374 -9.2822666e-23)
(0.79512379 -0.025208989 7.4705956e-23)
(0.7720716 -0.13557296 -6.561755e-24)
(0.92857023 -0.59941017 0)
(0.95134347 -0.74763546 -5.4869741e-20)
(0.94276794 -0.83451037 5.2869073e-20)
(0.91411391 -0.86824758 -3.3040029e-20)
(0.86474452 -0.85837587 3.1978272e-20)
(0.80336696 -0.81435002 1.7460363e-22)
(0.73692208 -0.75611311 0)
(0.67474679 -0.69891412 -1.4459441e-20)
(0.60217536 -0.65947863 1.3812559e-20)
(0.50159001 -0.63776793 4.1186559e-22)
(0.42293093 -0.55152414 0)
(0.41851588 -0.33883856 4.5423569e-22)
(0.47648512 -0.034406273 1.3826864e-20)
(0.57509847 0.25117117 -1.2780198e-20)
(0.66855757 0.45510556 9.6291643e-21)
(0.74827893 0.57736813 -1.715142e-20)
(0.8082354 0.63893448 1.4925083e-20)
(0.84630387 0.66432707 -6.9900142e-21)
(0.8645578 0.67647301 0)
(0.86900334 0.68943567 2.2015004e-22)
(0.86809737 0.68565557 -2.6819055e-22)
(0.86657727 0.61517174 3.4521231e-22)
(0.87655329 0.36372053 4.344121e-22)
(0.90557182 -0.026035212 0)
(0.93363136 -0.34723574 -5.5436318e-21)
(0.9500678 -0.51842336 5.3186049e-21)
(0.95281609 -0.57920851 0)
(0.93830597 -0.58031646 1.2852525e-22)
(0.90054022 -0.55285999 -2.0598736e-22)
(0.8398219 -0.51230402 -4.0096559e-22)
(0.77292022 -0.4146344 2.4265197e-22)
(0.73665094 -0.20282463 -1.7127939e-21)
(0.7418925 0.081629582 3.7972351e-22)
(0.77560179 0.31367334 1.9546179e-21)
(0.81437912 0.45324311 3.1506087e-22)
(0.84281261 0.5092431 -1.5350899e-22)
(0.85874865 0.50073612 -1.0331318e-21)
(0.86447817 0.37835844 1.0390138e-21)
(0.87281316 0.086639394 -2.7148722e-23)
(0.8800044 -0.20442203 -4.0570976e-22)
(0.87174594 -0.36529834 -2.9374192e-22)
(0.84982364 -0.41094224 1.5340718e-22)
(0.81135145 -0.36289646 4.0502081e-22)
(0.77685049 -0.1513319 7.8260783e-24)
(0.77340288 0.123743 -9.9897888e-23)
(0.78250898 0.27828726 0)
(0.79480674 0.3063734 -2.1467677e-22)
(0.80650592 0.22283339 1.1999228e-22)
(0.81469439 -0.022780614 4.3129371e-23)
(0.78749519 -0.13331473 8.0760012e-23)
(1.1367566 -0.59661905 -4.8687305e-22)
(1.1377393 -0.7164968 4.1359136e-22)
(1.1059161 -0.78630956 -3.659626e-22)
(1.0481934 -0.81274735 -2.8309817e-22)
(0.97288027 -0.79694061 0)
(0.89176459 -0.75370123 3.0700147e-22)
(0.81313458 -0.70003967 0)
(0.74009794 -0.64529606 2.1817056e-22)
(0.66891415 -0.59464974 -1.0638531e-20)
(0.58033655 -0.56129292 2.027815e-20)
(0.47404385 -0.5185977 -9.7090298e-21)
(0.41905901 -0.38215895 7.3288169e-23)
(0.44156692 -0.13274828 -1.9111205e-22)
(0.52523161 0.14574205 -2.4425308e-22)
(0.61986939 0.36604335 8.0061695e-21)
(0.70646815 0.51156325 -1.224885e-21)
(0.77856808 0.59521062 -6.3171875e-21)
(0.83098714 0.63839277 -5.7908556e-21)
(0.86502005 0.66383778 5.7688918e-21)
(0.88544804 0.68304806 -2.2281261e-22)
(0.90192819 0.68220714 2.7122522e-22)
(0.92246074 0.62205556 -3.488063e-22)
(0.95269282 0.38518183 -8.6649806e-22)
(0.99021754 -0.0054660514 -1.3675205e-20)
(1.0105976 -0.33665798 1.395325e-20)
(1.0112083 -0.51091626 8.2014384e-21)
(0.99740716 -0.57090184 -7.9057025e-21)
(0.96740559 -0.56807867 -1.5182397e-23)
(0.91831698 -0.53245267 -2.8137334e-21)
(0.84996645 -0.4898759 6.1699166e-21)
(0.77614711 -0.40166545 -2.8089289e-21)
(0.73462509 -0.20783079 -3.2483349e-21)
(0.7379514 0.062147471 3.1548984e-21)
(0.76996165 0.29241246 0)
(0.81336582 0.43667438 8.4889732e-22)
(0.84859357 0.49956765 -1.1235425e-21)
(0.87457582 0.49612507 -6.4333379e-22)
(0.8946234 0.38228595 4.3200752e-22)
(0.91279006 0.093264458 5.0630829e-22)
(0.91779632 -0.19837706 0)
(0.90157383 -0.3577546 1.2118567e-21)
(0.86940878 -0.40322718 -1.0386043e-21)
(0.82014198 -0.35494936 -1.8407013e-22)
(0.7783029 -0.14931827 0)
(0.77458473 0.12017883 1.3666356e-22)
(0.78630475 0.27403087 -1.3119317e-22)
(0.80437816 0.30303086 5.887206e-23)
(0.82397835 0.22140637 8.2633433e-23)
(0.83770083 -0.020296652 0)
(0.80649842 -0.13070097 -8.0635893e-23)
(1.3059276 -0.56378317 1.1306057e-19)
(1.2826042 -0.65628895 -1.0909887e-19)
(1.2288675 -0.71230477 -6.149261e-22)
(1.1503425 -0.73191105 0)
(1.0597858 -0.71897653 0)
(0.96828237 -0.68488775 -3.1424868e-22)
(0.88400873 -0.64119965 0)
(0.80593428 -0.59325004 2.0937959e-20)
(0.73280306 -0.54216857 -2.0466376e-20)
(0.65642228 -0.49510342 0)
(0.55826605 -0.45880976 -1.3431311e-22)
(0.46516314 -0.3851105 1.3657167e-20)
(0.44085164 -0.21262722 -1.3705233e-20)
(0.48931078 0.035689611 9.3159682e-23)
(0.58073803 0.26620252 5.5696868e-21)
(0.67091726 0.4326815 -1.0076094e-20)
(0.75123682 0.53864264 4.7415892e-21)
(0.81598283 0.60053919 0)
(0.86503154 0.63914714 -5.7057651e-21)
(0.90055342 0.66567522 5.1543652e-21)
(0.93329728 0.67018433 0)
(0.97445401 0.61833125 -1.2140584e-20)
(1.0257693 0.407094 1.190732e-20)
(1.073436 0.027448302 -4.5803269e-23)
(1.0887949 -0.31229524 0)
(1.0750622 -0.49274474 0)
(1.0455709 -0.55584229 5.7766252e-21)
(0.99945029 -0.55114178 -5.4595862e-21)
(0.94023842 -0.5102151 0)
(0.86643948 -0.46629734 -1.6205681e-22)
(0.78713809 -0.38836861 0)
(0.73827007 -0.21463587 0)
(0.73901172 0.039900562 2.3824856e-21)
(0.76988236 0.26820689 -2.5146324e-21)
(0.81660473 0.41687104 0)
(0.85794474 0.4866976 2.5655175e-21)
(0.89340696 0.48862813 -1.925918e-21)
(0.92723716 0.38418563 -4.2556291e-22)
(0.95537312 0.10174441 -2.0184464e-21)
(0.95847596 -0.18898115 1.9424908e-21)
(0.93442723 -0.3471558 0)
(0.89208861 -0.39308376 0)
(0.83309599 -0.34555661 0)
(0.78471004 -0.1474635 1.2811498e-22)
(0.77851178 0.11567462 -2.8343413e-22)
(0.79379097 0.26863228 6.9564201e-23)
(0.81776421 0.29847415 -3.6823428e-23)
(0.8448086 0.21894688 2.7692235e-22)
(0.86364418 -0.017763764 -1.0360404e-22)
(0.82863675 -0.12771152 0)
(1.4181301 -0.50245482 9.6008372e-21)
(1.3745598 -0.57457412 1.8240517e-19)
(1.3065855 -0.62097062 -8.2100859e-20)
(1.2204514 -0.64043507 -5.6476745e-20)
(1.1261424 -0.63594512 5.4307881e-20)
(1.0342608 -0.61411805 0)
(0.94899527 -0.58164746 2.5262758e-20)
(0.86992238 -0.54245554 -2.4308738e-20)
(0.79576919 -0.4971817 -1.4595286e-20)
(0.72503677 -0.44645229 1.4026903e-20)
(0.64619684 -0.39929228 0)
(0.54808271 -0.3519733 1.7926485e-22)
(0.47744013 -0.2520761 0)
(0.48082347 -0.064901414 7.5625848e-21)
(0.54925984 0.1590674 -1.3909576e-20)
(0.64038721 0.34260413 6.5140983e-21)
(0.72580362 0.46969219 0)
(0.80009561 0.55078154 8.0450645e-23)
(0.86190725 0.60315236 0)
(0.91161807 0.63811788 7.9565834e-23)
(0.9585244 0.64939399 0)
(1.0164388 0.60654908 0)
(1.08544 0.42507541 -2.5756179e-20)
(1.1455653 0.068532462 3.9978512e-20)
(1.1626544 -0.27585561 -2.5123985e-20)
(1.1390518 -0.46399863 1.1132624e-20)
(1.095328 -0.53327511 -4.0686656e-22)
(1.0338664 -0.52995593 3.4919125e-21)
(0.9655591 -0.48677015 -3.1548919e-21)
(0.88777605 -0.44229251 -1.9321297e-21)
(0.80472418 -0.37433616 -5.9336665e-23)
(0.74817247 -0.22197303 1.875775e-21)
(0.74373465 0.01517657 -1.8142438e-21)
(0.77447111 0.24110061 1.9743133e-21)
(0.82334072 0.39407406 0)
(0.87001282 0.47079874 1.9165938e-21)
(0.91407033 0.47851587 5.9816141e-22)
(0.96068077 0.38391822 -2.8579869e-21)
(0.99866105 0.11179758 0)
(1.000526 -0.17642008 -9.3579815e-22)
(0.96913349 -0.33361145 9.0295756e-22)
(0.91727998 -0.38058178 -8.6978352e-22)
(0.84897183 -0.33503172 0)
(0.79427308 -0.14580515 9.1641707e-23)
(0.78598689 0.1103229 1.7414304e-22)
(0.8045151 0.26198084 -7.0553949e-23)
(0.83442932 0.29271028 -2.331575e-22)
(0.86841499 0.21548142 0)
(0.8919017 -0.015179505 0)
(0.85334971 -0.12434201 -2.1179533e-22)
(1.4644182 -0.42358534 -8.970168e-20)
(1.4149831 -0.48279972 8.6785462e-20)
(1.3471587 -0.52549838 0)
(1.2648501 -0.54937335 3.796826e-23)
(1.1764982 -0.55484794 -3.5865486e-22)
(1.0897697 -0.54515318 0)
(1.0073707 -0.5238748 0)
(0.93007971 -0.49368669 1.5904522e-22)
(0.85710265 -0.4560267 9.8047107e-24)
(0.78812437 -0.41005374 8.9993955e-21)
(0.72091828 -0.35741549 -8.6136664e-21)
(0.6431672 -0.30627245 0)
(0.55457594 -0.24529609 0)
(0.50763794 -0.12987632 2.6749825e-23)
(0.53317203 0.052274833 -1.9430154e-23)
(0.61283903 0.24432779 0)
(0.70118827 0.39027521 3.5522511e-21)
(0.78247077 0.49023614 -3.482944e-21)
(0.85433672 0.5573663 -6.5586585e-21)
(0.91642031 0.60194751 6.6425465e-21)
(0.97553916 0.62100339 0)
(1.0461263 0.58862299 -1.9268921e-20)
(1.1285434 0.43825797 1.8596328e-20)
(1.2018506 0.1131264 -2.5599783e-20)
(1.2269557 -0.23087907 2.0156949e-21)
(1.1993302 -0.42708362 2.2204201e-20)
(1.144547 -0.50417653 1.0039134e-20)
(1.0697664 -0.50491326 -9.9282721e-21)
(0.99326197 -0.46238921 0)
(0.91274654 -0.41811663 0)
(0.82660918 -0.35926283 0)
(0.76293109 -0.22838363 1.4668096e-22)
(0.75202385 -0.011302929 0)
(0.78272623 0.21137516 -1.2414967e-21)
(0.83278298 0.36874138 2.4426813e-21)
(0.88377202 0.45212216 -1.4937584e-21)
(0.935888 0.46586709 5.689923e-22)
(0.99409539 0.38138737 4.1651104e-22)
(1.0409986 0.12286888 4.571597e-21)
(1.042386 -0.16110713 -2.9608017e-21)
(1.0045064 -0.31750637 0)
(0.94422238 -0.36589832 2.4262108e-22)
(0.86770609 -0.32314639 3.9588153e-23)
(0.80701831 -0.14407646 0)
(0.79669392 0.10407343 0)
(0.81818688 0.25413378 0)
(0.85377691 0.28578596 1.7722894e-22)
(0.89413579 0.21111357 -1.5978853e-22)
(0.92180095 -0.012552918 -2.2559892e-22)
(0.88004237 -0.12059351 2.1114227e-22)
(1.4714562 -0.34620337 8.1674121e-20)
(1.4244062 -0.39633504 -7.9006381e-20)
(1.3641746 -0.43709223 6.318231e-20)
(1.2923354 -0.46571504 -6.0897156e-20)
(1.2150281 -0.4801572 3.7523799e-22)
(1.1365204 -0.4811543 0)
(1.0595617 -0.47021337 -2.2320367e-22)
(0.98593469 -0.44905205 -3.3246091e-22)
(0.91577928 -0.41909818 -1.2294078e-20)
(0.84856833 -0.38039641 1.2124096e-20)
(0.78490589 -0.33174106 -4.7319838e-21)
(0.72208496 -0.27564907 2.3222323e-21)
(0.64927587 -0.21778202 2.0631629e-21)
(0.57576056 -0.14478464 -2.7753765e-23)
(0.55092759 -0.024509447 2.0242824e-23)
(0.59204772 0.14053271 -2.2537588e-22)
(0.67576941 0.30103907 -3.9341216e-22)
(0.76219776 0.41892719 -1.4276889e-21)
(0.84180604 0.50138442 1.85392e-21)
(0.91389825 0.55718539 -6.7978432e-21)
(0.98304123 0.58566469 6.58659e-21)
(1.062377 0.56510441 0)
(1.1547434 0.44725779 2.0472063e-20)
(1.2411983 0.15983093 -4.4700483e-20)
(1.2788567 -0.18005552 2.3845365e-20)
(1.2528039 -0.38504753 -1.6274598e-20)
(1.191403 -0.47089223 1.5069215e-20)
(1.1060125 -0.47755431 -5.5737492e-21)
(1.0219686 -0.4380369 5.265264e-21)
(0.94013978 -0.39455166 2.3108748e-21)
(0.85240555 -0.3433614 -2.1819134e-21)
(0.78148102 -0.23301438 7.1829646e-22)
(0.76354874 -0.037852537 -8.0864523e-22)
(0.79279886 0.17913626 0)
(0.84391857 0.34083908 1.3274844e-22)
(0.89845273 0.43085008 1.673688e-22)
(0.95681873 0.45139563 -2.8705525e-21)
(1.0245675 0.37723472 2.8715086e-21)
(1.0800788 0.13470116 3.4477488e-21)
(1.0824158 -0.14375979 -4.2744289e-21)
(1.0392166 -0.29961586 0)
(0.97194959 -0.34969082 -7.758747e-22)
(0.88848069 -0.31048835 4.6830833e-22)
(0.82231687 -0.14217472 -7.1777476e-23)
(0.8102306 0.097063101 7.2206889e-23)
(0.8343707 0.24522327 0)
(0.87518227 0.27783753 1.7287082e-22)
(0.92128918 0.20597245 -1.6648595e-22)
(0.95265584 -0.0099258162 -2.4338768e-22)
(0.90809418 -0.11649506 0)
(1.4562021 -0.27589093 7.6497945e-20)
(1.4161389 -0.31872211 -7.3816783e-20)
(1.3669038 -0.35899674 -6.1077649e-20)
(1.3085877 -0.39202294 1.1216927e-19)
(1.244153 -0.41392374 -9.4639911e-20)
(1.1753993 -0.42423385 4.2425983e-20)
(1.1055128 -0.42308627 2.3495838e-22)