/*--------------------------------*- C++ -*----------------------------------*\
  =========                 |
  \\      /  F ield         | OpenFOAM: The Open Source CFD Toolbox
   \\    /   O peration     | Website:  https://openfoam.org
    \\  /    A nd           | Version:  6
     \\/     M anipulation  |
\*---------------------------------------------------------------------------*/
FoamFile
{
    version     2.0;
    format      ascii;
    class       volScalarField;
    location    "2.74";
    object      alphaP2Mean.particles;
}
// * * * * * * * * * * * * * * * * * * * * * * * * * * * * * * * * * * * * * //

dimensions      [0 0 0 0 0 0 0];

internalField   nonuniform List<scalar> 
256
(
0.0133226
0.00511276
0.0119247
0.0121028
0.00952522
0.0147136
0.00838385
0.0130171
0.0111863
0.00813289
0.00960306
0.0120117
0.00733554
0.00716781
0.00722833
0.00596074
0.0118066
0.0047429
0.0100266
0.0141301
0.0116272
0.0147082
0.0120444
0.0136946
0.00726147
0.00749805
0.0100942
0.0150042
0.00521047
0.00589094
0.0071828
0.00875206
0.00871198
0.0079627
0.00822825
0.0230689
0.0139524
0.0125574
0.0154194
0.0202786
0.0071939
0.00934505
0.00942104
0.01965
0.00511034
0.00580242
0.00760964
0.0134854
0.00787462
0.00938084
0.00855027
0.0257062
0.0158936
0.0124159
0.0136736
0.0257062
0.00795229
0.0127584
0.00894559
0.0191982
0.00590096
0.00694729
0.0078932
0.0170618
0.0122488
0.0154781
0.0190321
0.0247731
0.0174465
0.0160557
0.0173413
0.025622
0.0133971
0.0210148
0.011357
0.0201917
0.00975259
0.00860163
0.0122563
0.0243947
0.0176021
0.0214088
0.0287317
0.0264571
0.0175614
0.0210742
0.0257232
0.024835
0.0111183
0.0260501
0.0131979
0.0225338
0.0103977
0.0125405
0.0201686
0.0266058
0.019829
0.0230302
0.0289563
0.018203
0.0170457
0.0264034
0.0254466
0.0136432
0.01453
0.0262423
0.0194987
0.0172582
0.0125075
0.021524
0.0273534
0.0241031
0.0200519
0.0264554
0.0278631
0.0111624
0.0209936
0.030834
0.0292014
0.0158324
0.0277333
0.0293434
0.0305182
0.0185262
0.0187724
0.0297352
0.0301637
0.0213061
0.0204778
0.0283428
0.0279987
0.0188062
0.0275684
0.0300221
0.0308334
0.0204728
0.0302158
0.0183206
0.0307836
0.0254148
0.0256398
0.0254757
0.0294339
0.0193135
0.0270426
0.0294153
0.0309102
0.0289299
0.0314821
0.0269934
0.0309526
0.0296009
0.0314329
0.013348
0.0251435
0.0299714
0.0296055
0.0166142
0.0282378
0.0256609
0.0317289
0.0249823
0.031914
0.0319142
0.0316981
0.0173687
0.0319142
0.0304428
0.0182462
0.0211491
0.0254886
0.0311701
0.0275793
0.0135685
0.0169622
0.0270731
0.0315276
0.0211434
0.0246301
0.0254806
0.0102882
0.00992323
0.0233141
0.0181797
0.0152229
0.0197357
0.0224614
0.0235963
0.0222585
0.0142849
0.0102225
0.0240473
0.0176628
0.015995
0.0189106
0.0139597
0.00637743
0.0137617
0.0127103
0.0172763
0.0109874
0.0215
0.0272188
0.0145193
0.0158809
0.0161542
0.0149124
0.017377
0.0156658
0.0141776
0.0176927
0.0094969
0.00665752
0.0119795
0.0110619
0.0128579
0.00730942
0.0150599
0.0179416
0.0110699
0.021232
0.0211529
0.0185343
0.0134283
0.0168909
0.0134675
0.0191139
0.0110704
0.0127706
0.0188506
0.0112535
0.0117211
0.0170882
0.0188136
0.0142887
0.00759002
0.0171243
0.0157211
0.0162801
0.00980792
0.0148081
0.0112568
0.0169049
0.0122809
0.0122885
0.015877
0.0114572
0.0123262
0.0149116
0.0126918
0.0118806
0.00804786
0.0102473
0.00751359
0.0110863
0.00842058
)
;

boundaryField
{
    bottom
    {
        type            cyclic;
    }
    top
    {
        type            cyclic;
    }
    lr1
    {
        type            cyclic;
    }
    lr2
    {
        type            cyclic;
    }
    vh1
    {
        type            cyclic;
    }
    vh2
    {
        type            cyclic;
    }
}


// ************************************************************************* //
