/*--------------------------------*- C++ -*----------------------------------*\
  =========                 |
  \\      /  F ield         | OpenFOAM: The Open Source CFD Toolbox
   \\    /   O peration     | Website:  https://openfoam.org
    \\  /    A nd           | Version:  6
     \\/     M anipulation  |
\*---------------------------------------------------------------------------*/
FoamFile
{
    version     2.0;
    format      ascii;
    class       volScalarField;
    location    "2.74";
    object      alpha.particles;
}
// * * * * * * * * * * * * * * * * * * * * * * * * * * * * * * * * * * * * * //

dimensions      [0 0 0 0 0 0 0];

internalField   nonuniform List<scalar> 
256
(
0.111135
0.0736243
0.102791
0.103857
0.10033
0.119419
0.0888006
0.109315
0.0983541
0.0807318
0.0887224
0.103311
0.0744299
0.0733383
0.0738864
0.0756615
0.102082
0.0733607
0.0913193
0.115943
0.101006
0.119386
0.103507
0.11335
0.0739486
0.0754821
0.0917327
0.121151
0.0733454
0.0725818
0.0734361
0.0834451
0.0831944
0.0784629
0.0801497
0.171826
0.114885
0.111495
0.123631
0.153417
0.0735085
0.0871314
0.0876007
0.14944
0.072689
0.0734446
0.0762016
0.112104
0.0779008
0.0873525
0.0821803
0.190946
0.126469
0.105729
0.117031
0.190946
0.0868821
0.107773
0.084653
0.146612
0.0734886
0.0734909
0.0780196
0.133503
0.10473
0.123982
0.145578
0.183927
0.135837
0.127441
0.135198
0.190946
0.111579
0.158142
0.101793
0.152864
0.0896413
0.0825028
0.104775
0.181167
0.136784
0.160706
0.216741
0.196853
0.136536
0.158527
0.191077
0.184382
0.110633
0.19362
0.114276
0.16818
0.0935814
0.106473
0.152717
0.198055
0.150567
0.17156
0.218928
0.140457
0.133406
0.196422
0.18896
0.135364
0.12347
0.195137
0.148491
0.134694
0.109911
0.161461
0.204276
0.185635
0.151977
0.196839
0.220343
0.128347
0.158006
0.239953
0.221376
0.128433
0.207568
0.222827
0.235963
0.142446
0.143967
0.226964
0.231751
0.160036
0.157455
0.213069
0.209928
0.144444
0.206127
0.239795
0.239944
0.154655
0.232353
0.17298
0.239298
0.188719
0.190435
0.189181
0.223764
0.154204
0.20165
0.22357
0.240953
0.218668
0.24908
0.231339
0.241518
0.225522
0.248331
0.147648
0.227392
0.229565
0.22557
0.146274
0.2121
0.190597
0.253018
0.1963
0.256206
0.256208
0.252508
0.189166
0.256208
0.254782
0.208082
0.159013
0.210048
0.247224
0.206222
0.144284
0.158721
0.201906
0.249782
0.174187
0.221072
0.230074
0.224455
0.168023
0.247284
0.226954
0.171505
0.16483
0.189841
0.219943
0.166328
0.146212
0.146583
0.18118
0.173157
0.159524
0.191032
0.163997
0.179494
0.177928
0.202897
0.202215
0.136657
0.17553
0.203132
0.163351
0.140685
0.157773
0.161152
0.149938
0.131627
0.148373
0.176083
0.119138
0.124608
0.146473
0.16159
0.133999
0.120324
0.162417
0.185205
0.11805
0.159553
0.159038
0.155355
0.116621
0.13247
0.127713
0.156748
0.109339
0.111256
0.144451
0.120782
0.10301
0.133663
0.144222
0.13269
0.0907649
0.134068
0.141161
0.129072
0.0952792
0.124248
0.0987789
0.132554
0.104922
0.105316
0.12637
0.102541
0.105192
0.120599
0.107375
0.102526
0.0833958
0.0948278
0.0917843
0.0977517
0.081657
)
;

boundaryField
{
    bottom
    {
        type            cyclic;
    }
    top
    {
        type            cyclic;
    }
    lr1
    {
        type            cyclic;
    }
    lr2
    {
        type            cyclic;
    }
    vh1
    {
        type            cyclic;
    }
    vh2
    {
        type            cyclic;
    }
}


// ************************************************************************* //
