/*--------------------------------*- C++ -*----------------------------------*\
  =========                 |
  \\      /  F ield         | OpenFOAM: The Open Source CFD Toolbox
   \\    /   O peration     | Website:  https://openfoam.org
    \\  /    A nd           | Version:  6
     \\/     M anipulation  |
\*---------------------------------------------------------------------------*/
FoamFile
{
    version     2.0;
    format      ascii;
    class       volScalarField;
    location    "2.74";
    object      alpha.particlesMean;
}
// * * * * * * * * * * * * * * * * * * * * * * * * * * * * * * * * * * * * * //

dimensions      [0 0 0 0 0 0 0];

internalField   nonuniform List<scalar> 
256
(
0.143735
0.146289
0.139027
0.141848
0.145782
0.14577
0.141073
0.141914
0.151552
0.152995
0.146434
0.141987
0.151494
0.149288
0.149746
0.147935
0.141486
0.143844
0.136595
0.138655
0.14301
0.143895
0.137863
0.138555
0.14918
0.149862
0.145934
0.138948
0.146747
0.146233
0.144929
0.143277
0.142463
0.146408
0.139463
0.138496
0.139948
0.14412
0.134527
0.136328
0.145913
0.147887
0.142399
0.13813
0.145865
0.146732
0.144751
0.140185
0.145426
0.151617
0.145042
0.139636
0.140839
0.148891
0.138294
0.139877
0.145884
0.149084
0.144643
0.142927
0.147306
0.149542
0.147432
0.141291
0.150174
0.153319
0.149199
0.142179
0.144379
0.149187
0.14296
0.143507
0.149549
0.149154
0.147743
0.145378
0.149197
0.151618
0.149327
0.143907
0.157236
0.156187
0.152589
0.151124
0.152708
0.154674
0.148864
0.151933
0.159841
0.155926
0.153801
0.150804
0.156345
0.155767
0.155274
0.151896
0.159145
0.152525
0.152566
0.157767
0.155341
0.157486
0.15004
0.153352
0.159453
0.160914
0.157124
0.151462
0.157013
0.157781
0.157169
0.154518
0.156873
0.151102
0.150711
0.157694
0.154194
0.156214
0.149655
0.150513
0.156177
0.162301
0.155975
0.151349
0.153897
0.154962
0.15606
0.154167
0.153287
0.152544
0.150494
0.152057
0.153909
0.154404
0.149396
0.147138
0.15577
0.163527
0.155669
0.152962
0.149327
0.148994
0.151428
0.150693
0.153728
0.153783
0.154093
0.149132
0.155213
0.15693
0.153196
0.148479
0.158929
0.162803
0.155682
0.154766
0.150892
0.150067
0.149818
0.151923
0.153601
0.154412
0.156688
0.147962
0.156397
0.156748
0.151181
0.149855
0.159339
0.15706
0.152918
0.152943
0.153161
0.150108
0.153492
0.157115
0.157088
0.157283
0.158028
0.15258
0.159518
0.155307
0.149397
0.15188
0.157432
0.155547
0.15321
0.155675
0.158914
0.154434
0.160423
0.163065
0.155299
0.15468
0.156957
0.154326
0.155225
0.154609
0.14987
0.150907
0.153718
0.151129
0.150361
0.158181
0.153293
0.156682
0.164141
0.160705
0.14956
0.153691
0.15556
0.151891
0.150215
0.153758
0.151054
0.149532
0.151359
0.149262
0.14925
0.157078
0.151289
0.158753
0.161764
0.156315
0.144631
0.150816
0.151017
0.148677
0.144569
0.146969
0.147096
0.147414
0.15139
0.146486
0.145657
0.150519
0.151497
0.158832
0.157942
0.153795
0.144549
0.148473
0.146609
0.145447
0.145972
0.146963
0.143803
0.145126
0.153093
0.149564
0.144998
0.147871
0.153679
0.155258
0.15375
0.152276
)
;

boundaryField
{
    bottom
    {
        type            cyclic;
    }
    top
    {
        type            cyclic;
    }
    lr1
    {
        type            cyclic;
    }
    lr2
    {
        type            cyclic;
    }
    vh1
    {
        type            cyclic;
    }
    vh2
    {
        type            cyclic;
    }
}


// ************************************************************************* //
