/*--------------------------------*- C++ -*----------------------------------*\
  =========                 |
  \\      /  F ield         | OpenFOAM: The Open Source CFD Toolbox
   \\    /   O peration     | Website:  https://openfoam.org
    \\  /    A nd           | Version:  6
     \\/     M anipulation  |
\*---------------------------------------------------------------------------*/
FoamFile
{
    version     2.0;
    format      ascii;
    class       volScalarField;
    location    "2.74";
    object      alpha.air;
}
// * * * * * * * * * * * * * * * * * * * * * * * * * * * * * * * * * * * * * //

dimensions      [0 0 0 0 0 0 0];

internalField   nonuniform List<scalar> 
256
(
0.888865
0.926376
0.897209
0.896143
0.89967
0.880581
0.911199
0.890685
0.901646
0.919268
0.911278
0.896689
0.92557
0.926662
0.926114
0.924339
0.897918
0.926639
0.908681
0.884057
0.898994
0.880614
0.896493
0.88665
0.926051
0.924518
0.908267
0.878849
0.926655
0.927418
0.926564
0.916555
0.916806
0.921537
0.91985
0.828174
0.885115
0.888505
0.876369
0.846583
0.926491
0.912869
0.912399
0.85056
0.927311
0.926555
0.923798
0.887896
0.922099
0.912647
0.91782
0.809054
0.873531
0.894271
0.882969
0.809054
0.913118
0.892227
0.915347
0.853388
0.926511
0.926509
0.92198
0.866497
0.89527
0.876018
0.854422
0.816073
0.864163
0.872559
0.864802
0.809054
0.888421
0.841858
0.898207
0.847136
0.910359
0.917497
0.895225
0.818833
0.863216
0.839294
0.783259
0.803147
0.863464
0.841473
0.808923
0.815618
0.889367
0.80638
0.885724
0.83182
0.906419
0.893527
0.847283
0.801945
0.849433
0.82844
0.781072
0.859543
0.866594
0.803578
0.81104
0.864636
0.87653
0.804863
0.851509
0.865306
0.890089
0.838539
0.795724
0.814365
0.848023
0.803161
0.779657
0.871653
0.841994
0.760047
0.778624
0.871567
0.792432
0.777173
0.764037
0.857554
0.856033
0.773036
0.768249
0.839964
0.842545
0.786931
0.790072
0.855556
0.793873
0.760205
0.760056
0.845345
0.767647
0.82702
0.760702
0.811281
0.809565
0.810819
0.776236
0.845796
0.79835
0.77643
0.759047
0.781332
0.75092
0.768661
0.758482
0.774478
0.751669
0.852352
0.772608
0.770435
0.77443
0.853726
0.7879
0.809403
0.746982
0.8037
0.743794
0.743792
0.747492
0.810834
0.743792
0.745218
0.791918
0.840987
0.789952
0.752776
0.793778
0.855716
0.841279
0.798094
0.750218
0.825813
0.778928
0.769926
0.775545
0.831977
0.752716
0.773046
0.828495
0.83517
0.810159
0.780057
0.833672
0.853788
0.853417
0.81882
0.826843
0.840476
0.808968
0.836003
0.820506
0.822072
0.797103
0.797785
0.863343
0.82447
0.796868
0.836649
0.859315
0.842227
0.838848
0.850062
0.868373
0.851627
0.823917
0.880862
0.875392
0.853527
0.83841
0.866001
0.879676
0.837583
0.814795
0.88195
0.840447
0.840962
0.844645
0.883379
0.86753
0.872287
0.843252
0.890661
0.888744
0.855549
0.879218
0.89699
0.866337
0.855778
0.86731
0.909235
0.865932
0.858839
0.870928
0.904721
0.875752
0.901221
0.867446
0.895078
0.894684
0.87363
0.897459
0.894808
0.879401
0.892625
0.897474
0.916604
0.905172
0.908216
0.902248
0.918343
)
;

boundaryField
{
    bottom
    {
        type            cyclic;
    }
    top
    {
        type            cyclic;
    }
    lr1
    {
        type            cyclic;
    }
    lr2
    {
        type            cyclic;
    }
    vh1
    {
        type            cyclic;
    }
    vh2
    {
        type            cyclic;
    }
}


// ************************************************************************* //
