/*--------------------------------*- C++ -*----------------------------------*\
  =========                 |
  \\      /  F ield         | OpenFOAM: The Open Source CFD Toolbox
   \\    /   O peration     | Website:  https://openfoam.org
    \\  /    A nd           | Version:  6
     \\/     M anipulation  |
\*---------------------------------------------------------------------------*/
FoamFile
{
    version     2.0;
    format      ascii;
    class       volScalarField;
    location    "2.74";
    object      Cmu.air;
}
// * * * * * * * * * * * * * * * * * * * * * * * * * * * * * * * * * * * * * //

dimensions      [0 0 0 0 0 0 0];

internalField   nonuniform List<scalar> 
256
(
0.806226
0.1
0.652002
0.1
0.776774
0.1
0.632233
0.1
0.806226
0.806226
0.806226
0.698186
0.806226
0.1
0.687123
0.288724
0.806226
0.424146
0.806226
0.659895
0.806226
0.1
0.806226
0.1
0.806226
0.806226
0.806226
0.806226
0.806226
0.1
0.806226
0.535052
0.806226
0.1
0.721539
0.492595
0.626314
0.1
0.638116
0.1
0.806226
0.1
0.806226
0.492333
0.806226
0.1
0.806226
0.806226
0.749455
0.675393
0.802184
0.378254
0.760323
0.1
0.806226
0.1
0.806226
0.58776
0.806226
0.521818
0.751534
0.1
0.806226
0.1
0.806226
0.806226
0.732587
0.148446
0.806226
0.794318
0.572537
0.1
0.806226
0.629659
0.806226
0.588428
0.790695
0.656214
0.806226
0.1
0.806226
0.806226
0.806226
0.795604
0.790293
0.326945
0.1
0.806226
0.1
0.1
0.1
0.806226
0.806226
0.1
0.806226
0.1
0.684335
0.511271
0.507866
0.770013
0.1
0.1
0.1
0.761727
0.1
0.1
0.1
0.1
0.1
0.1
0.1
0.512228
0.71763
0.411316
0.1
0.806226
0.1
0.1
0.1
0.1
0.1
0.76252
0.1
0.1
0.1
0.1
0.1
0.737871
0.365835
0.1
0.1
0.806226
0.1
0.783377
0.1
0.610243
0.806226
0.806226
0.806226
0.1
0.1
0.806226
0.1
0.806226
0.1
0.419965
0.1
0.692866
0.682584
0.806226
0.800515
0.1
0.806226
0.224212
0.806226
0.1
0.806226
0.776207
0.806226
0.1
0.1
0.1
0.342306
0.806226
0.806226
0.806226
0.743818
0.1
0.806226
0.1
0.806226
0.416235
0.734897
0.1
0.806226
0.806226
0.806226
0.806226
0.806226
0.806226
0.806226
0.806226
0.806226
0.1
0.806226
0.806226
0.806226
0.806226
0.806226
0.806226
0.806226
0.806226
0.806226
0.806226
0.777669
0.806226
0.70344
0.806226
0.594462
0.806226
0.806226
0.806226
0.806226
0.806226
0.1
0.582952
0.1
0.438411
0.806226
0.806226
0.806226
0.806226
0.1
0.1
0.337639
0.806226
0.806226
0.806226
0.806226
0.806226
0.1
0.183565
0.477987
0.1
0.806226
0.806226
0.806226
0.806226
0.1
0.1
0.1
0.806226
0.806226
0.806226
0.806226
0.806226
0.1
0.1
0.806226
0.1
0.806226
0.806226
0.806226
0.806226
0.1
0.1
0.1
0.394627
0.806226
0.806226
0.806226
0.806226
0.603189
0.1
0.626931
0.1
)
;

boundaryField
{
    bottom
    {
        type            cyclic;
    }
    top
    {
        type            cyclic;
    }
    lr1
    {
        type            cyclic;
    }
    lr2
    {
        type            cyclic;
    }
    vh1
    {
        type            cyclic;
    }
    vh2
    {
        type            cyclic;
    }
}


// ************************************************************************* //
