/*--------------------------------*- C++ -*----------------------------------*\
  =========                 |
  \\      /  F ield         | OpenFOAM: The Open Source CFD Toolbox
   \\    /   O peration     | Website:  https://openfoam.org
    \\  /    A nd           | Version:  6
     \\/     M anipulation  |
\*---------------------------------------------------------------------------*/
FoamFile
{
    version     2.0;
    format      ascii;
    class       volScalarField;
    location    "2.74";
    object      dgdt;
}
// * * * * * * * * * * * * * * * * * * * * * * * * * * * * * * * * * * * * * //

dimensions      [0 0 -1 0 0 0 0];

internalField   nonuniform List<scalar> 
256
(
2.0026e-05
0.000209135
9.93702e-06
3.26045e-05
3.62638e-05
9.16374e-05
2.31019e-05
0.000107882
-9.32141e-06
0.000246681
1.23705e-05
0.000133811
7.7133e-05
0.000180848
4.45142e-05
3.20998e-05
-6.73678e-05
0.000226701
1.90685e-05
-4.81488e-05
-5.21075e-05
-2.50895e-07
-4.46716e-05
-4.24646e-05
-0.000105525
0.000152554
-5.96636e-05
-7.24137e-05
-9.64573e-05
-3.26012e-05
9.93781e-05
-3.96738e-05
-2.93237e-05
0.000233307
-1.61995e-05
-0.00024058
-0.000139611
8.18698e-05
-0.000145976
-0.000183273
-0.000128274
8.02064e-05
-8.7065e-05
-0.000236362
-7.483e-05
-2.06715e-05
0.000105211
-0.000124064
-6.67959e-06
0.00014241
-5.13912e-05
-0.000460064
-0.000151717
8.42701e-05
-0.000151842
-0.000484855
-9.58657e-05
-5.93534e-05
-8.24777e-05
-0.000253491
-8.48784e-06
0.000102581
0.000105401
-0.000181384
-6.84173e-05
9.72603e-06
-0.000205148
-0.000475872
-0.000123921
-4.45553e-05
-0.000166765
-0.000433936
-0.000122911
-0.000290096
-0.000120925
-0.000232498
-3.49082e-05
0.000121258
1.88344e-05
-0.000324433
-0.00022224
-0.000281348
-0.000470291
-0.000384717
-0.000148829
-0.000143602
-0.000300875
-0.000306926
-0.000148432
-0.000422001
-0.000173547
-0.000284717
-0.000108989
-6.91328e-05
-0.000180248
-0.000362422
-0.000248948
-0.000200313
-0.000260987
-0.000117515
-0.000133202
-0.00018312
-0.00016036
-0.000201243
-0.000165817
-0.00059694
-0.000192195
-0.000128016
-0.000137172
-0.000501606
-0.000128578
-0.000185775
-0.00033321
-0.000404361
-0.000259587
-5.86017e-05
-0.000343881
-0.000632633
-0.000136789
-0.000184721
-0.000854673
-0.002057
-0.000592884
-9.66007e-05
-0.000410401
-0.00152219
-0.00029573
-0.000211694
-0.000569769
-0.00106219
-0.00048714
-0.000214011
-0.00130451
-0.0017107
-0.000824459
-0.000414595
-0.002175
-0.00140898
-0.0018961
-0.000797658
-0.00109099
-0.00176082
-0.000971618
-0.000432782
-0.000644416
-0.000813005
-0.000458776
-0.000250147
-0.00133564
-0.000607413
-0.000827896
-0.0007203
-0.00119407
0.000789635
-0.000763357
-0.00100213
-0.000769779
-0.000311069
-0.000559295
-0.000318564
-0.000612377
-0.000523855
-0.000202647
-0.000487156
-0.000762939
-0.000235617
-0.000670988
-0.0005763
-0.000796539
0.00055556
-0.000481853
-0.000810242
-0.000508823
-0.000102746
-0.000238361
-0.000261778
3.36798e-05
0.000156725
0.000500788
-8.54376e-05
0.000196872
-7.5167e-06
0.000310398
0.000140462
-0.000193901
-0.000354642
-1.43479e-05
1.07317e-05
-4.02679e-05
4.47083e-05
0.000298763
2.1338e-05
0.000596312
0.000556524
0.000813741
0.00035449
0.000885078
0.000834185
0.0011897
0.000664038
0.000488736
0.000385998
0.00110034
0.00052949
0.000472238
0.000180038
0.000836424
0.000459061
0.000559947
0.000360876
0.00074924
0.000451997
0.000714072
0.00086641
0.000993744
0.000580911
0.000612462
0.000730033
0.00096911
0.000498063
0.000625367
0.000110342
0.000685615
0.000345334
0.000430101
0.000594206
0.000575693
0.000411735
0.000445859
0.000538648
0.000458534
0.000388191
0.000584321
0.000741383
0.000490911
0.000343701
0.000503147
0.00139035
0.000608318
0.000286675
0.000280866
0.00061748
0.000230366
0.000248175
0.000209218
0.000278252
0.000173741
0.000274381
0.000295394
0.000632401
0.0002068
0.000242096
0.000459548
0.00113658
0.000296231
0.00023119
)
;

boundaryField
{
    bottom
    {
        type            cyclic;
    }
    top
    {
        type            cyclic;
    }
    lr1
    {
        type            cyclic;
    }
    lr2
    {
        type            cyclic;
    }
    vh1
    {
        type            cyclic;
    }
    vh2
    {
        type            cyclic;
    }
}


// ************************************************************************* //
