/*--------------------------------*- C++ -*----------------------------------*\
  =========                 |
  \\      /  F ield         | OpenFOAM: The Open Source CFD Toolbox
   \\    /   O peration     | Website:  https://openfoam.org
    \\  /    A nd           | Version:  6
     \\/     M anipulation  |
\*---------------------------------------------------------------------------*/
FoamFile
{
    version     2.0;
    format      ascii;
    class       volScalarField;
    location    "2.74";
    object      dragCorr;
}
// * * * * * * * * * * * * * * * * * * * * * * * * * * * * * * * * * * * * * //

dimensions      [0 0 0 0 0 0 0];

internalField   nonuniform List<scalar> 
256
(
0.509686
0.644683
0.65368
0.22895
0.0846047
0.672778
0.0575151
0.0200792
0.223186
0.65839
0.327543
0.289522
0.344309
0.232286
0.584746
0.200783
0.99
0.930098
0.99
0.99
0.99
0.99
0.99
0.302091
0.564851
0.99
0.99
0.792276
0.486095
0.595275
0.99
0.76369
0.671693
0.856128
0.713084
0.515518
0.264159
0.96026
0.265473
0.280627
0.339017
0.672337
0.568991
0.148322
0.525998
0.630161
0.71791
0.702953
0.540267
0.803272
0.551661
0.99
0.630671
0.861634
0.650835
0.99
0.70283
0.875601
0.463974
0.980073
0.74572
0.759942
0.957705
0.99
0.415975
0.761756
0.612219
0.590751
0.51329
0.554676
0.354429
0.42594
0.609148
0.868979
0.404414
0.32163
0.568152
0.989829
0.78893
0.619725
0.424031
0.84386
0.758368
0.596772
0.410473
0.771313
0.54753
0.40424
0.483706
0.706226
0.419165
0.734077
0.367054
0.784555
0.772272
0.902236
0.584576
0.611738
0.605617
0.879761
0.388258
0.360932
0.353997
0.560628
0.239158
0.22598
0.126969
0.282709
0.435184
0.534685
0.643111
0.685368
0.663008
0.703886
0.99
0.638688
0.75159
0.409205
0.809847
0.453041
0.0912736
0.951047
0.0813015
0.16879
0.264567
0.219699
0.642353
0.751943
0.640385
0.429577
0.916175
0.581471
0.49985
0.99
0.376244
0.840379
0.99
0.99
0.99
0.099108
0.0698767
0.99
0.207842
0.322778
0.277522
0.99
0.392194
0.505439
0.99
0.99
0.99
0.254328
0.99
0.99
0.99
0.99
0.99
0.765291
0.99
0.102474
0.798325
0.768878
0.908505
0.99
0.739595
0.99
0.753146
0.99
0.99
0.983487
0.99
0.678626
0.694025
0.847796
0.578392
0.99
0.773594
0.83438
0.882535
0.716266
0.556214
0.61313
0.855103
0.874108
0.514597
0.803403
0.729247
0.843016
0.512414
0.277627
0.408227
0.598528
0.258302
0.453098
0.630906
0.401599
0.242715
0.467475
0.289251
0.34031
0.254554
0.213814
0.620914
0.554645
0.135178
0.249357
0.533361
0.470016
0.402681
0.398101
0.824101
0.758083
0.275397
0.232074
0.263556
0.526525
0.115927
0.296151
0.616871
0.683626
-0.0328332
0.99
0.740084
0.502185
0.448645
0.99
0.376225
0.295727
0.159559
0.38348
0.0690179
0.331961
0.123316
0.99
0.120785
0.242363
0.947452
0.99
0.700842
0.185817
0.99
0.99
0.91161
0.748686
0.764674
0.99
0.369058
0.733842
0.914971
0.99
0.524448
0.257129
0.948726
0.853882
0.792399
0.664111
)
;

boundaryField
{
    bottom
    {
        type            cyclic;
    }
    top
    {
        type            cyclic;
    }
    lr1
    {
        type            cyclic;
    }
    lr2
    {
        type            cyclic;
    }
    vh1
    {
        type            cyclic;
    }
    vh2
    {
        type            cyclic;
    }
}


// ************************************************************************* //
