/*--------------------------------*- C++ -*----------------------------------*\
  =========                 |
  \\      /  F ield         | OpenFOAM: The Open Source CFD Toolbox
   \\    /   O peration     | Website:  https://openfoam.org
    \\  /    A nd           | Version:  6
     \\/     M anipulation  |
\*---------------------------------------------------------------------------*/
FoamFile
{
    version     2.0;
    format      ascii;
    class       volVectorField;
    location    "2.74";
    object      k.air;
}
// * * * * * * * * * * * * * * * * * * * * * * * * * * * * * * * * * * * * * //

dimensions      [0 2 -2 0 0 0 0];

internalField   nonuniform List<vector> 
256
(
(8.80909e-05 0.000160836 0.0355517)
(0.000215124 8.38484e-05 0.172198)
(3.42493e-05 0.000153186 0.0528238)
(0.000175514 9.63043e-05 0.00612772)
(0.00160754 0.00517064 0.00260692)
(0.000218254 0.000296808 0.060906)
(0.000191422 0.00176632 0.000710229)
(0.000538227 0.00185296 0.00897386)
(1e-07 0.000132893 0.00538411)
(7.23275e-05 3.75004e-05 0.203758)
(6.05459e-05 0.000405294 0.00935939)
(0.00109689 0.000182837 0.00615227)
(5.49796e-05 0.000163785 0.0518403)
(0.000118149 1.13546e-05 0.0558788)
(0.00157441 0.000878929 0.14345)
(7.60682e-05 9.6624e-05 0.0102138)
(0.000923151 0.00158351 0.326558)
(5.28007e-05 3.12099e-05 0.241381)
(9.74042e-05 0.00130931 0.156358)
(0.00132588 0.000219459 0.0223666)
(0.00507961 0.018235 0.0754577)
(0.00044153 0.00103852 0.38042)
(0.000555193 0.00322337 0.0345353)
(0.000110196 0.000254372 0.000390586)
(0.000384369 0.00996336 0.0373588)
(0.000118989 0.000193216 0.4252)
(0.00191824 0.00917147 0.113673)
(0.00146275 0.00197238 0.00831272)
(0.000289106 0.00194557 0.079071)
(3.98525e-05 0.000104843 0.0597558)
(0.00129633 0.00532088 0.361858)
(0.00125447 0.00166948 0.0344138)
(0.000135423 4.52178e-05 0.0343115)
(5.00496e-05 1e-07 0.160644)
(0.000103066 7.05672e-05 0.0246359)
(0.000139573 1.91772e-06 0.00208735)
(8.79674e-05 0.000339 0.00152978)
(0.000284602 0.000209458 0.127158)
(6.21014e-06 2.26171e-05 0.000414488)
(1.3773e-05 2.86765e-05 0.000670053)
(0.00201153 0.002447 0.00878669)
(0.000207261 0.000111336 0.202836)
(3.30072e-05 0.000265087 0.0108523)
(3.79634e-05 5.44809e-05 0.000196689)
(0.000465275 0.000445219 0.0257618)
(1.95717e-05 5.31933e-05 0.0883108)
(0.000167912 0.000252269 0.0743683)
(0.00054687 0.000143593 0.0161781)
(0.000289856 7.93577e-05 0.00953031)
(0.000239997 1e-07 0.086953)
(9.38596e-05 5.95757e-05 0.00957885)
(2.4159e-05 1e-07 0.0124488)
(3.93165e-05 7.20566e-05 0.00276417)
(0.000224409 8.35689e-05 0.0389259)
(6.83541e-05 1.91909e-05 0.00316677)
(5.14204e-06 9.00898e-06 0.00438835)
(0.00854278 0.00014799 0.00926575)
(0.000345651 1e-07 0.0527664)
(1.11442e-05 2.06731e-05 0.0060074)
(0.00101401 1e-07 0.00884165)
(0.00289301 0.000341955 0.0335648)
(0.000277178 2.57667e-05 0.0658939)
(0.000875695 4.77207e-05 0.132405)
(0.00182403 0.000254702 0.0388371)
(0.000101232 8.32366e-06 0.00248719)
(6.2368e-05 2.95137e-05 0.0379309)
(1e-07 1.61925e-05 0.00467929)
(4.67875e-07 6.42318e-06 0.010261)
(5.55734e-05 4.91843e-06 0.00174392)
(1.58994e-05 1.04518e-05 0.00892657)
(1e-07 8.23203e-07 0.00106355)
(1e-07 4.58861e-07 0.00223921)
(0.000465659 6.35351e-06 0.00437505)
(1.71441e-05 1e-07 0.0203977)
(1e-07 1.43664e-05 0.00252679)
(7.19683e-07 6.05234e-06 0.00162893)
(0.00052622 2.45787e-05 0.00707071)
(0.000373433 3.43804e-05 0.101059)
(0.000123005 1.93223e-05 0.0549004)
(1.09347e-05 1.12723e-05 0.0117909)
(0.00069116 6.26586e-06 0.00649636)
(0.000297817 5.45802e-06 0.0395235)
(1e-07 5.07253e-06 0.0199144)
(0.000268802 1.04006e-06 0.0708383)
(0.000240456 3.44901e-06 0.00419403)
(7.78281e-05 1.01789e-05 0.0119658)
(1e-07 2.12137e-06 0.00493369)
(5.7566e-07 7.16101e-05 0.0145281)
(0.000292275 3.56566e-07 0.00793483)
(1.14534e-05 1.45703e-05 0.0149849)
(1.20254e-06 2.21185e-05 0.00544236)
(1e-07 0.000103574 0.0212751)
(0.00104059 6.8251e-06 0.00668534)
(0.000561713 2.07159e-05 0.0559185)
(5.02964e-07 4.23445e-05 0.0319933)
(1.11348e-07 1e-07 0.0464322)
(0.000918098 9.35802e-07 0.0231736)
(0.000121379 3.87874e-06 0.0267585)
(4.01291e-07 1e-07 0.0426355)
(0.00214788 0.00013517 0.171257)
(0.000289731 7.71635e-05 0.00895441)
(0.000107779 7.56454e-06 0.00648239)
(1e-07 9.15838e-05 0.00977423)
(0.000115177 0.000664512 0.0448238)
(1.85756e-06 3.07457e-05 0.00279204)
(0.000309938 0.000426341 0.0135737)
(1e-07 1.9952e-05 0.00151099)
(1e-07 7.02514e-05 0.00726663)
(0.000624931 1.27181e-06 0.00917457)
(0.000422186 1e-07 0.0206574)
(1e-07 1.02618e-06 0.0192167)
(0.000158022 1e-07 0.0521263)
(0.000489736 2.4815e-06 0.0364779)
(5.07367e-06 2.26627e-05 0.0483088)
(5.53169e-06 2.58382e-06 0.26528)
(0.000896818 2.08428e-05 0.107509)
(0.000421247 0.000172348 0.0315492)
(0.000114995 0.00011969 0.0239755)
(4.93293e-06 7.09489e-05 0.0265111)
(0.00014108 0.000330114 0.0293198)
(1.60395e-05 0.000289521 0.00581491)
(0.0247163 0.0294668 0.59183)
(1e-07 2.45546e-05 0.00378243)
(5.20684e-06 0.000103749 0.00828327)
(2.05606e-06 1e-07 0.00439191)
(1e-07 1e-07 0.0101294)
(7.73924e-07 9.66859e-06 0.0224948)
(2.17196e-05 2.52226e-05 0.0522012)
(1e-07 4.13845e-05 0.0306698)
(4.04333e-06 0.000123799 0.0217326)
(1e-07 3.77383e-06 0.0957029)
(3.51995e-05 1e-07 0.0622403)
(1e-07 0.000213843 0.0340175)
(0.000242669 0.00152912 0.691895)
(1e-07 1.61944e-05 0.0150427)
(2.93329e-05 1.06334e-05 0.0612282)
(0.00285622 0.0801531 0.848678)
(0.0951961 0.0868611 1.66342)
(1e-07 0.0103913 0.581267)
(1.82796e-05 7.16662e-05 0.00754274)
(1e-07 0.000136423 0.00292461)
(0.00370292 0.00307946 0.277647)
(5.1986e-07 4.94802e-05 0.00714545)
(4.01503e-06 3.07631e-07 0.0149441)
(4.27701e-06 1.27746e-05 0.00959218)
(0.000200967 0.0054201 0.569706)
(1e-07 5.098e-07 0.0238864)
(4.50474e-06 1e-07 0.0297697)
(0.00049513 0.000262033 0.785705)
(1e-07 0.0102173 1.81056)
(0.00143561 0.00260464 0.853856)
(3.28417e-05 1.20864e-05 0.0270663)
(0.00108287 0.0153998 1.25313)
(0.0356983 0.0387702 1.68378)
(0.000292244 0.010854 1.0528)
(0.00285645 0.00325132 0.97314)
(0.00189432 0.0116675 0.474998)
(0.00152562 0.0032698 0.177536)
(1e-07 0.000323563 0.185894)
(1.7568e-05 8.59867e-05 0.0173263)
(2.68272e-06 8.23579e-07 0.0277576)
(1.96508e-05 0.000352203 0.0661092)
(7.09892e-06 1.67477e-05 0.0562165)
(9.44619e-06 3.88145e-06 0.118871)
(1.86987e-05 1e-07 0.033775)
(1e-07 0.000212581 0.260068)
(2.00368e-05 5.72834e-05 0.0295611)
(6.90048e-05 8.84269e-06 0.0876122)
(0.000107381 0.000813876 0.269034)
(0.00101059 0.00254352 0.413833)
(0.000198863 0.00429124 0.246352)
(1.48219e-05 5.85682e-05 0.0500324)
(3.76396e-05 0.000231028 0.0276605)
(0.000237353 0.00443684 0.0755968)
(1.89405e-05 0.000946917 0.0226371)
(1.58497e-05 0.000166861 0.0796609)
(1.59396e-05 1.16792e-05 0.0718829)
(4.77173e-06 7.86854e-05 0.105819)
(8.21724e-06 2.90684e-06 0.0873993)
(2.7363e-05 2.27603e-05 0.127364)
(0.000114131 1.35626e-05 0.033211)
(3.65411e-05 1e-07 0.0737822)
(8.09337e-06 1e-07 0.0313521)
(0.000151884 1.47603e-05 0.104253)
(0.000250373 0.000106314 0.0891122)
(0.000125267 0.000867776 0.203723)
(1.39039e-06 0.000625344 0.0721863)
(2.67403e-05 6.82697e-05 0.0918889)
(4.6714e-05 0.000238416 0.0345149)
(3.81967e-05 0.00152586 0.0279784)
(6.24786e-07 0.000344597 0.0195596)
(7.78697e-06 8.72236e-05 0.0734367)
(1.62122e-05 5.29512e-05 0.0328644)
(1.6544e-05 2.74227e-07 0.0621452)
(1e-07 5.04771e-06 0.0662433)
(2.41801e-05 2.21251e-05 0.0833784)
(7.67391e-05 3.03974e-05 0.0152498)
(4.497e-05 1.95492e-06 0.0353563)
(1e-07 3.86496e-06 0.0099738)
(7.80317e-05 1.38835e-05 0.0263882)
(9.08086e-05 5.52933e-05 0.0442888)
(6.90752e-05 7.45316e-05 0.0504662)
(1e-07 0.000127608 0.0533)
(0.000140085 4.96917e-05 0.107596)
(3.93655e-06 6.1752e-05 0.010181)
(5.79126e-06 0.000205401 0.0363609)
(1e-07 5.96491e-05 0.0334872)
(1.38591e-05 1.94348e-05 0.0611215)
(3.4392e-05 2.08246e-05 0.0355511)
(2.40974e-05 2.90127e-05 0.0614419)
(2.21723e-05 1.60943e-05 0.0903214)
(3.66956e-05 3.46976e-05 0.106549)
(2.6353e-05 6.17136e-05 0.0121834)
(2.66729e-05 1.10733e-05 0.0154796)
(1.11936e-05 2.8492e-05 0.00690857)
(0.000150507 4.76895e-05 0.0238386)
(7.11388e-06 2.97565e-05 0.0176056)
(2.06188e-05 4.02771e-06 0.0454635)
(8.40156e-05 3.96525e-05 0.0563633)
(0.000148624 0.000128823 0.093449)
(4.29675e-06 1e-07 0.0191317)
(0.000296486 0.000859935 1.75318)
(2.20946e-05 1.37733e-05 0.11013)
(3.75804e-06 1.05624e-05 0.0987547)
(3.46453e-05 7.46922e-05 0.0439196)
(0.000696895 4.12848e-05 0.425148)
(2.38432e-06 5.63013e-05 0.0278939)
(3.17408e-05 1.73336e-05 0.0198141)
(3.09431e-05 0.000161865 0.0052322)
(0.000172655 5.76005e-05 0.0218142)
(5.38818e-05 8.27807e-05 0.00163258)
(0.000131543 7.99038e-05 0.00962046)
(1e-07 1e-07 0.00883763)
(0.000380188 1e-07 0.438298)
(7.06356e-05 5.79395e-06 0.00554541)
(8.22446e-05 1e-07 0.0154641)
(1e-07 3.7557e-05 0.389055)
(0.00129942 0.000336767 4.16689)
(4.18073e-07 0.000175494 0.222124)
(4.6816e-06 1.98725e-05 0.0278092)
(0.000202596 0.000246636 0.0993032)
(0.00121372 5.60699e-05 0.39085)
(6.96511e-05 0.00010464 0.0771421)
(0.000357295 0.00108676 0.0421462)
(0.000918284 0.00366405 0.0272757)
(0.000849099 0.000340715 0.117974)
(0.000166723 0.000640439 0.00818175)
(0.00257521 0.00528341 0.0380301)
(1e-07 0.000109581 0.0385414)
(0.000320753 0.000143869 0.497776)
(0.000105429 0.000298251 0.0189672)
(0.000134737 9.83972e-05 0.00556357)
(3.30303e-07 0.000100285 0.20698)
(0.000564527 5.04117e-05 0.72721)
(0.000307974 0.000444336 0.168747)
(0.000250521 0.000595233 0.0668234)
)
;

boundaryField
{
    bottom
    {
        type            cyclic;
    }
    top
    {
        type            cyclic;
    }
    lr1
    {
        type            cyclic;
    }
    lr2
    {
        type            cyclic;
    }
    vh1
    {
        type            cyclic;
    }
    vh2
    {
        type            cyclic;
    }
}


// ************************************************************************* //
