/*--------------------------------*- C++ -*----------------------------------*\
  =========                 |
  \\      /  F ield         | OpenFOAM: The Open Source CFD Toolbox
   \\    /   O peration     | Website:  https://openfoam.org
    \\  /    A nd           | Version:  6
     \\/     M anipulation  |
\*---------------------------------------------------------------------------*/
FoamFile
{
    version     2.0;
    format      ascii;
    class       volVectorField;
    location    "2.74";
    object      k.particles;
}
// * * * * * * * * * * * * * * * * * * * * * * * * * * * * * * * * * * * * * //

dimensions      [0 2 -2 0 0 0 0];

internalField   nonuniform List<vector> 
256
(
(5.15637e-05 5.81523e-05 0.0118351)
(5.48829e-05 2.00475e-06 0.0182742)
(4.37931e-05 0.000131581 0.0140306)
(0.000162447 0.000117857 0.00433009)
(0.000519923 0.00236306 0.00231348)
(9.05691e-05 0.000191443 0.0130902)
(9.7321e-05 0.000704787 0.00126961)
(0.000191596 0.00121104 0.00447107)
(2.16143e-06 0.000196482 0.00382557)
(1.27889e-05 1.30146e-05 0.0180431)
(9.85474e-05 0.000324033 0.0049123)
(0.000260603 9.29973e-05 0.00279869)
(9.95788e-06 7.74267e-05 0.0195309)
(3.02236e-05 8.59965e-06 0.0348749)
(0.000259216 0.000373483 0.0247652)
(0.000105588 5.94569e-05 0.00439422)
(0.000116099 0.000187279 0.0316427)
(3.35549e-05 1e-07 0.0270507)
(6.57664e-05 0.000309287 0.0242615)
(0.000509987 0.000110162 0.00911968)
(0.000543774 0.00228549 0.00898318)
(6.61185e-05 0.000178011 0.0269688)
(6.71234e-05 0.000416691 0.00493794)
(0.000152003 0.00070496 0.00190692)
(8.70314e-05 0.000957097 0.00681464)
(1.61787e-05 2.95389e-05 0.022975)
(0.000217246 0.000962162 0.0109778)
(0.000336872 0.00015983 0.00302136)
(8.77459e-05 0.00038118 0.0151845)
(1.60593e-05 3.71947e-05 0.0268272)
(0.000386026 0.00103062 0.0337757)
(0.00038977 0.000209759 0.00678857)
(5.08026e-05 8.56824e-05 0.00974152)
(1.4868e-05 1e-07 0.0395752)
(2.41558e-05 9.57949e-05 0.00948955)
(0.000101245 8.45064e-06 0.00258817)
(0.000103557 0.000392128 0.00312144)
(4.76648e-05 9.60286e-05 0.013816)
(6.04282e-06 3.34844e-05 0.00281625)
(1.92423e-05 4.53418e-05 0.00163558)
(0.000328967 0.00042436 0.00383152)
(1.603e-05 1.67506e-05 0.02059)
(4.14495e-06 9.04112e-05 0.00250771)
(3.45087e-05 3.82188e-05 0.000717675)
(0.000210552 0.000315147 0.0106069)
(3.68615e-06 1.46103e-05 0.0197037)
(3.72128e-05 0.000134042 0.0121165)
(0.000205084 7.55493e-05 0.00486871)
(8.6787e-05 0.000163869 0.00376313)
(2.53326e-05 5.85537e-07 0.024515)
(5.84375e-06 5.84493e-05 0.00255389)
(9.09951e-06 1.84267e-06 0.00505127)
(3.61082e-05 0.000114671 0.00286742)
(5.46439e-05 7.35794e-05 0.00689365)
(1.91844e-05 2.2062e-05 0.00315842)
(2.52067e-06 5.69009e-06 0.00360064)
(0.00114839 0.00010174 0.00450601)
(7.47234e-05 9.17086e-06 0.0146875)
(2.04153e-06 1.1511e-05 0.00153745)
(4.9335e-05 2.92803e-06 0.00251441)
(0.000410093 0.000223761 0.00797527)
(4.32886e-05 3.76623e-05 0.0287617)
(1.27932e-05 3.26858e-05 0.0150437)
(0.000131685 6.35662e-05 0.00482609)
(5.26463e-05 2.92087e-05 0.00351865)
(7.08381e-06 7.36169e-06 0.0109377)
(2.27333e-07 1.66239e-05 0.00386366)
(2.76184e-06 5.08602e-06 0.00665377)
(2.574e-05 2.556e-05 0.00313912)
(6.55565e-06 1.16497e-05 0.00418781)
(2.30538e-06 4.45876e-06 0.00175055)
(1e-07 8.7041e-07 0.00290352)
(0.000155844 1.27174e-05 0.00377444)
(6.22358e-06 1.18034e-05 0.00659507)
(3.39218e-07 4.03804e-06 0.00139135)
(1e-07 7.26778e-06 0.0017745)
(0.000305408 4.38114e-05 0.00750102)
(7.05294e-05 7.08502e-05 0.042775)
(2.8233e-06 5.06964e-06 0.00643286)
(3.44447e-06 5.77036e-06 0.00368722)
(0.000107535 9.97422e-06 0.00412059)
(3.1296e-05 5.92797e-06 0.0139997)
(3.85751e-07 4.00559e-06 0.0103986)
(3.57357e-05 3.31181e-06 0.0288806)
(6.29391e-05 7.38527e-06 0.00394336)
(1.13706e-05 5.45806e-06 0.00520165)
(2.38084e-07 2.73377e-06 0.00454622)
(4.44954e-07 2.25383e-05 0.00939309)
(7.54375e-05 1e-07 0.00343749)
(7.27903e-06 2.88648e-05 0.00603159)
(3.34739e-07 5.98153e-06 0.00201275)
(1e-07 2.38052e-05 0.00905531)
(0.000302718 1.27927e-05 0.00329115)
(5.56316e-05 2.33681e-05 0.0165091)
(1.89673e-07 1.03982e-05 0.00541033)
(4.14883e-07 4.18891e-07 0.0103264)
(0.000100304 3.8721e-06 0.00734185)
(9.98257e-06 3.0799e-06 0.0105072)
(3.64565e-07 3.08586e-07 0.00976937)
(0.000158066 2.12101e-05 0.0321238)
(6.21064e-05 2.94663e-05 0.00648955)
(4.27645e-05 4.8193e-05 0.00636286)
(3.64243e-07 1.41409e-05 0.00521987)
(2.20673e-05 0.000101165 0.0168489)
(2.08564e-05 5.06947e-05 0.00299711)
(0.000388058 0.000729842 0.00974997)
(1e-07 1e-07 0.00190452)
(1e-07 1.3758e-05 0.00423527)
(6.67964e-05 3.02133e-07 0.00308144)
(7.40624e-07 1e-07 0.00516102)
(1.34221e-07 9.11149e-07 0.00610447)
(1.65707e-05 8.89433e-07 0.0102894)
(0.000143699 8.26539e-06 0.0190137)
(1e-07 1.91737e-05 0.0274919)
(6.33273e-07 3.66157e-07 0.0277357)
(0.000136187 8.14506e-06 0.0251528)
(0.000167791 0.000180027 0.0294738)
(6.9841e-05 0.0001117 0.0211191)
(1.01399e-06 2.15683e-05 0.0130194)
(4.78727e-05 9.00752e-05 0.0115927)
(6.3413e-05 0.000337841 0.00746957)
(0.0039579 0.00459969 0.0609072)
(1e-07 3.13021e-05 0.00500142)
(3.82255e-06 8.47967e-05 0.00744304)
(7.74631e-06 1e-07 0.00286424)
(1e-07 3.3172e-06 0.00559654)
(1.33402e-06 5.43623e-06 0.00981608)
(1.11392e-05 1.40315e-05 0.0204781)
(9.75997e-06 1.51638e-05 0.0199861)
(4.75774e-06 0.000159143 0.0264498)
(1.31079e-06 1e-07 0.0320586)
(2.57616e-05 8.08991e-07 0.0296883)
(2.18868e-05 0.000121838 0.0215037)
(6.4848e-06 0.000210946 0.0658626)
(1.19084e-05 3.0202e-05 0.0133345)
(2.01281e-05 3.86357e-05 0.0277816)
(0.000342619 0.00698843 0.0645126)
(0.0113855 0.0102235 0.116517)
(1e-07 0.00129342 0.0566479)
(2.40596e-05 8.45339e-05 0.0125123)
(6.68795e-07 0.000142904 0.00375688)
(0.000543918 0.000485125 0.0250746)
(3.5847e-06 2.00507e-05 0.00747866)
(5.83105e-06 6.27476e-06 0.0133064)
(3.15141e-06 5.22388e-06 0.0128585)
(2.71253e-05 0.000847306 0.0798944)
(2.98174e-06 2.6545e-06 0.0161971)
(7.55067e-06 1e-07 0.0327)
(4.3508e-05 2.31053e-05 0.062595)
(1e-07 0.000779819 0.101222)
(0.000112388 0.000194766 0.0616268)
(3.51701e-05 6.71599e-06 0.0324483)
(0.000101022 0.00121767 0.0820899)
(0.00293651 0.00314837 0.0718991)
(3.86557e-05 0.00106318 0.0689044)
(0.000185379 0.000246562 0.0717514)
(0.000152012 0.000841841 0.0328395)
(0.000230392 0.000890241 0.0173898)
(2.2854e-06 9.52073e-05 0.0239031)
(2.37975e-05 7.52048e-05 0.0198249)
(2.05177e-06 1e-07 0.0177377)
(1.45202e-05 0.000143625 0.0348303)
(7.46957e-06 6.75184e-06 0.029564)
(9.94844e-06 1.16828e-06 0.0582167)
(9.29098e-06 1e-07 0.017749)
(1e-07 5.50511e-05 0.0427634)
(1.32445e-05 2.17637e-05 0.0120661)
(5.34145e-05 2.43404e-06 0.0479277)
(1.47663e-05 0.000314068 0.0687116)
(0.000258355 0.000847602 0.0622163)
(6.39649e-05 0.00131206 0.0640105)
(2.39989e-05 6.9954e-05 0.0395208)
(2.52752e-05 0.000193973 0.0131084)
(8.02328e-05 0.0010184 0.0159593)
(6.45349e-06 0.000333241 0.0104846)
(1.43322e-05 0.000141536 0.0388183)
(4.59725e-06 1.83285e-06 0.0316746)
(8.67485e-06 4.72412e-05 0.0402938)
(4.47622e-06 3.80002e-06 0.0328614)
(1.76791e-05 6.66237e-06 0.0593265)
(3.11067e-05 8.70908e-06 0.0139287)
(2.14358e-05 4.77485e-07 0.0340047)
(7.17758e-06 1e-07 0.00756985)
(9.65737e-05 8.78887e-06 0.0416959)
(2.50677e-05 9.31174e-05 0.0466918)
(6.986e-05 0.000487931 0.0756777)
(1.31203e-05 0.000378902 0.029085)
(2.79522e-05 6.23569e-05 0.0477683)
(1.55523e-05 0.000125608 0.0190677)
(3.66829e-05 0.000700587 0.0245039)
(1.57495e-06 0.000104967 0.00836339)
(7.00717e-06 7.09775e-05 0.0400976)
(6.70392e-06 1.27863e-05 0.0206364)
(1.31669e-05 1.33254e-05 0.0329823)
(3.33826e-06 6.69511e-06 0.0268486)
(1.8123e-05 1.2325e-05 0.037312)
(3.1957e-05 2.16101e-05 0.00830646)
(3.16949e-05 1.21754e-06 0.0291531)
(3.67564e-06 5.297e-06 0.00412545)
(8.82283e-05 1.51005e-05 0.0189189)
(1.78699e-05 3.91601e-05 0.0365925)
(2.75983e-05 0.000129727 0.0516337)
(6.02139e-06 9.88571e-05 0.0267289)
(6.19659e-05 3.03109e-05 0.0358016)
(4.07719e-06 3.40052e-05 0.00988806)
(1.07148e-05 0.000211324 0.0299301)
(8.38672e-07 3.0014e-05 0.0172757)
(3.30775e-06 1.402e-05 0.0195022)
(1.41028e-05 2.48897e-05 0.0289205)
(2.77764e-05 1.042e-05 0.0342785)
(1.00724e-05 1.21725e-05 0.0267766)
(2.54006e-05 2.36198e-05 0.0425024)
(3.37895e-05 8.66272e-05 0.00709169)
(4.38983e-05 1.43194e-05 0.0150351)
(1.94844e-05 3.94812e-05 0.00360646)
(0.000151545 5.78273e-05 0.0124656)
(7.30145e-06 1.70369e-05 0.0158793)
(1.84468e-05 2.07546e-05 0.0332207)
(3.57209e-05 2.40813e-05 0.0207373)
(9.58785e-05 4.2628e-05 0.0366072)
(2.26498e-06 6.37805e-06 0.0199164)
(2.26349e-05 9.94601e-05 0.125188)
(6.49782e-06 1.52954e-05 0.0380623)
(2.54334e-06 9.56592e-06 0.0471273)
(3.01139e-05 5.72092e-05 0.0190016)
(9.12631e-05 1.2009e-05 0.0282691)
(1.00785e-05 1.95031e-05 0.00982285)
(2.86056e-05 8.23189e-06 0.0132151)
(8.13302e-05 0.000389188 0.00489041)
(8.86404e-05 3.02934e-05 0.00876752)
(4.36999e-05 0.000123221 0.00254118)
(0.000156123 0.000140973 0.0048134)
(1e-07 1e-07 0.00827759)
(4.14044e-05 3.29826e-06 0.0298214)
(3.32503e-05 1.98547e-05 0.00484759)
(7.43485e-05 1.29465e-05 0.0105802)
(2.09089e-06 2.01783e-05 0.0645394)
(5.68594e-05 1.79975e-05 0.111254)
(1.3007e-05 4.16557e-05 0.0270078)
(1.22924e-05 2.75287e-05 0.0328568)
(9.69893e-05 0.000128479 0.0204574)
(0.000169294 7.3917e-06 0.0328075)
(2.80247e-05 5.93624e-05 0.0152941)
(0.000123695 0.00010551 0.0100409)
(0.000324952 0.0018485 0.00676684)
(0.000209019 0.000113891 0.0165686)
(7.89314e-05 0.000327134 0.00425333)
(0.000411254 0.000647503 0.00610025)
(1e-07 3.13469e-05 0.0111055)
(4.68084e-05 9.00869e-06 0.0362984)
(6.01354e-05 0.000102546 0.00623571)
(7.06564e-05 2.96941e-05 0.002987)
(1e-07 3.47797e-05 0.0449785)
(8.54656e-05 1.12728e-05 0.0598523)
(7.30799e-05 0.000158041 0.0289073)
(7.65938e-05 0.000157778 0.0187258)
)
;

boundaryField
{
    bottom
    {
        type            cyclic;
    }
    top
    {
        type            cyclic;
    }
    lr1
    {
        type            cyclic;
    }
    lr2
    {
        type            cyclic;
    }
    vh1
    {
        type            cyclic;
    }
    vh2
    {
        type            cyclic;
    }
}


// ************************************************************************* //
