/*--------------------------------*- C++ -*----------------------------------*\
  =========                 |
  \\      /  F ield         | OpenFOAM: The Open Source CFD Toolbox
   \\    /   O peration     | Website:  https://openfoam.org
    \\  /    A nd           | Version:  6
     \\/     M anipulation  |
\*---------------------------------------------------------------------------*/
FoamFile
{
    version     2.0;
    format      ascii;
    class       volScalarField;
    location    "2.74";
    object      nut.air;
}
// * * * * * * * * * * * * * * * * * * * * * * * * * * * * * * * * * * * * * //

dimensions      [0 2 -1 0 0 0 0];

internalField   nonuniform List<scalar> 
256
(
0.000271186
0.000560496
0.000284165
3.12316e-05
0.000135087
4.36474e-05
5.59636e-05
1.89907e-05
0.000107989
0.000669273
0.000142607
0.000101371
0.000340521
4.38609e-05
0.000570405
0.00010335
0.000830546
0.000734217
0.000581974
0.000186363
0.000455576
0.00010884
0.000282951
4.87304e-06
0.000326145
0.000972429
0.000517301
0.000153596
0.000426054
4.53964e-05
0.000906914
0.000223431
0.000274552
0.000452866
0.000207118
3.67819e-05
4.72503e-05
6.34898e-05
2.23194e-05
4.51953e-06
0.000171932
0.00066345
0.000155352
1.30639e-05
0.000244198
0.000158897
0.000407363
0.000173216
0.000135134
0.0004084
0.000142385
6.47806e-05
6.94833e-05
3.54266e-05
8.12198e-05
1.07364e-05
0.000197299
0.000331558
0.0001147
8.49331e-05
0.000263764
0.000219321
0.000542838
3.50544e-05
7.35622e-05
0.000275437
8.42568e-05
1.65386e-05
5.91902e-05
0.000101603
3.14138e-05
7.65788e-06
9.97344e-05
0.000193954
7.30108e-05
3.95806e-05
0.000126651
0.000471253
0.000338664
1.77995e-05
0.000117233
0.000270077
0.000178251
0.000345335
8.58679e-05
3.9052e-05
1.13664e-05
0.000158911
1.61341e-05
1.97594e-05
1.30964e-05
0.000196114
0.000128523
4.24782e-05
0.000244532
3.45609e-05
0.000176735
0.000135811
0.000162357
0.000563488
1.67334e-05
1.30544e-05
1.61117e-05
0.000287151
9.31705e-06
1.92562e-05
6.66367e-06
1.48238e-05
1.76235e-05
2.43493e-05
2.2062e-05
0.000212607
0.00021768
0.000113986
8.03143e-05
0.000462806
3.01913e-05
2.36521e-05
2.53917e-05
3.00866e-05
1.23989e-05
0.000953544
9.42847e-06
1.5712e-05
1.13489e-05
1.55606e-05
2.30501e-05
0.000309587
9.83428e-05
2.327e-05
4.88842e-05
0.000344266
2.93761e-05
0.00102092
1.86541e-05
0.000255303
0.00119477
0.00181158
0.000943488
1.41756e-05
8.95825e-06
0.000697265
1.3169e-05
0.000166744
1.56519e-05
0.000465767
2.34628e-05
0.000200361
0.000968147
0.00167244
0.00113279
2.55043e-05
0.00136568
0.000226042
0.00128501
0.00015248
0.000872826
0.000545167
0.000548237
2.13718e-05
2.4892e-05
4.14451e-05
0.000187943
0.000413524
0.00022157
0.000667021
0.000195763
5.9984e-05
0.000663457
0.000108665
0.000637952
0.000167308
0.000182498
4.84885e-05
0.000208406
0.000363631
0.000324392
0.000433333
0.000371335
0.000443143
0.000228333
0.000364487
0.000214935
4.99604e-05
0.000399588
0.000609309
0.000352502
0.000381477
0.000250768
0.000236625
0.000194146
0.000358024
0.000241952
0.000337889
0.000298235
0.000389352
0.000120779
0.000249412
7.27267e-05
0.00020933
0.000293449
0.000299074
0.000297
0.000442906
1.7397e-05
9.3458e-05
3.07284e-05
4.20432e-05
0.000264214
0.000340531
0.000399354
0.000463782
1.93946e-05
2.12645e-05
5.48931e-05
0.000139329
0.000188404
0.000288047
0.000312255
0.000435373
2.67997e-05
0.000812468
0.000239918
5.55248e-05
0.000293522
0.000917894
0.000227329
0.000202406
1.3092e-05
2.54053e-05
7.39639e-06
0.000143414
0.000131325
0.000913946
0.000104858
0.000182801
0.000870958
0.0012667
0.000626625
3.01877e-05
0.000445995
0.00090997
0.000388924
0.00030133
3.19381e-05
6.03157e-05
5.54254e-05
0.000181282
0.000278775
0.00101596
0.000201411
0.000111471
0.000664182
0.000154965
0.00055448
0.000211914
)
;

boundaryField
{
    bottom
    {
        type            cyclic;
    }
    top
    {
        type            cyclic;
    }
    lr1
    {
        type            cyclic;
    }
    lr2
    {
        type            cyclic;
    }
    vh1
    {
        type            cyclic;
    }
    vh2
    {
        type            cyclic;
    }
}


// ************************************************************************* //
