/*--------------------------------*- C++ -*----------------------------------*\
  =========                 |
  \\      /  F ield         | OpenFOAM: The Open Source CFD Toolbox
   \\    /   O peration     | Website:  https://openfoam.org
    \\  /    A nd           | Version:  6
     \\/     M anipulation  |
\*---------------------------------------------------------------------------*/
FoamFile
{
    version     2.0;
    format      ascii;
    class       volScalarField;
    location    "2.74";
    object      nut.particles;
}
// * * * * * * * * * * * * * * * * * * * * * * * * * * * * * * * * * * * * * //

dimensions      [0 2 -1 0 0 0 0];

internalField   nonuniform List<scalar> 
256
(
2.42925e-06
1.99364e-06
1.01028e-05
1.41037e-06
5.96401e-06
1.03582e-05
3.333e-06
6.90859e-06
1.24785e-06
2.17041e-06
4.09977e-06
1.16009e-06
2.08501e-06
2.74068e-06
2.35502e-06
1.02177e-06
1.50457e-05
9.95581e-06
1.18197e-05
9.4357e-06
9.05256e-06
1.62404e-05
6.28483e-06
4.91401e-06
1.3111e-06
2.29052e-06
2.02288e-06
1.43718e-06
1.8353e-06
2.37999e-06
1.13603e-05
1.43449e-06
6.81841e-06
1.2874e-05
4.72221e-06
1.78496e-06
5.69769e-06
1.08629e-05
5.44808e-06
1.26517e-06
4.10445e-06
2.50253e-06
8.93745e-07
8.40275e-07
6.32444e-06
2.06284e-06
1.68939e-06
1.6089e-06
4.06981e-06
1.12843e-05
8.41004e-07
2.71713e-06
5.72946e-06
7.30589e-06
5.45893e-06
2.29417e-06
5.43564e-06
2.61969e-06
6.66775e-07
1.48554e-06
5.62281e-06
1.02921e-05
7.90298e-06
1.89205e-06
5.18212e-06
2.59501e-06
7.47815e-06
3.00237e-06
6.327e-06
1.65301e-06
1.13351e-06
2.05814e-06
1.40128e-06
2.57206e-06
7.60585e-07
1.29055e-06
6.54944e-06
1.4094e-05
1.68172e-06
2.20292e-06
1.78094e-06
1.57009e-05
1.82295e-05
2.76054e-05
1.73001e-06
2.29037e-06
2.57754e-06
3.57836e-06
1.31146e-06
3.01643e-06
1.02697e-06
3.205e-06
1.12402e-06
2.74262e-06
2.24882e-06
4.02538e-06
2.5985e-06
1.45106e-05
4.32792e-06
2.08171e-05
2.16449e-06
3.15594e-06
2.73422e-06
1.45421e-05
1.36794e-06
4.06857e-06
1.29612e-06
1.75601e-06
1.23347e-06
2.32006e-06
3.19234e-06
3.76922e-06
1.73498e-05
2.69229e-05
7.33933e-06
1.68336e-05
2.25005e-05
7.00409e-06
2.08476e-05
1.14708e-05
3.68299e-06
1.17457e-05
3.34795e-06
1.01941e-05
1.54309e-06
3.39687e-06
4.59377e-06
1.88966e-05
1.83674e-05
2.86634e-05
3.0996e-05
2.05325e-05
6.06554e-06
1.23283e-05
5.55025e-06
2.12793e-05
1.24558e-05
5.30137e-05
1.15203e-05
4.24024e-06
2.37867e-06
6.11307e-06
3.87629e-06
1.4675e-05
1.88621e-05
5.2395e-05
6.13418e-06
3.2611e-05
1.24701e-05
1.47768e-05
1.20211e-05
3.35211e-05
1.43439e-05
8.24633e-06
1.2033e-05
1.23354e-05
8.2982e-06
3.98019e-06
6.57175e-06
2.2185e-05
2.77895e-05
3.02787e-05
3.63353e-05
5.09815e-05
6.72986e-06
7.82867e-06
5.63682e-06
4.60225e-05
4.50858e-05
8.00279e-06
4.42911e-05
4.05764e-05
4.76146e-06
3.76886e-06
3.30268e-06
3.28694e-05
3.66619e-05
2.88529e-05
3.30511e-05
4.62205e-05
5.3056e-06
2.55583e-05
4.30506e-06
3.82637e-05
3.05986e-05
3.75292e-05
2.68773e-05
3.96776e-05
1.90095e-05
1.91554e-05
2.69807e-06
2.99464e-05
2.05219e-05
2.38999e-05
2.58168e-05
2.61331e-05
3.28233e-06
2.50661e-05
2.60923e-06
2.29985e-05
2.15735e-05
3.29406e-05
2.74393e-05
2.55203e-05
2.80329e-06
2.25915e-05
1.74822e-05
4.18965e-06
1.84712e-05
2.26654e-05
2.377e-05
2.02657e-05
2.11645e-06
1.4839e-05
1.95662e-06
1.24403e-05
1.25128e-05
2.44257e-05
2.20246e-05
1.86605e-05
4.50437e-06
4.64246e-05
2.50007e-05
2.08797e-05
3.66048e-06
4.30242e-06
3.11175e-06
2.51736e-06
1.6292e-06
2.72343e-06
5.18309e-06
6.07249e-06
2.4322e-06
4.98483e-06
1.85779e-06
1.8749e-06
6.81307e-06
9.41995e-06
4.24663e-06
1.42504e-05
3.57376e-06
3.58796e-06
3.28793e-06
2.12658e-06
1.9916e-06
3.28479e-06
5.77189e-06
7.33946e-06
2.5454e-06
4.0946e-06
1.64021e-06
9.26759e-07
4.0238e-06
4.49458e-06
3.33724e-06
2.24877e-06
)
;

boundaryField
{
    bottom
    {
        type            cyclic;
    }
    top
    {
        type            cyclic;
    }
    lr1
    {
        type            cyclic;
    }
    lr2
    {
        type            cyclic;
    }
    vh1
    {
        type            cyclic;
    }
    vh2
    {
        type            cyclic;
    }
}


// ************************************************************************* //
