/*--------------------------------*- C++ -*----------------------------------*\
  =========                 |
  \\      /  F ield         | OpenFOAM: The Open Source CFD Toolbox
   \\    /   O peration     | Website:  https://openfoam.org
    \\  /    A nd           | Version:  6
     \\/     M anipulation  |
\*---------------------------------------------------------------------------*/
FoamFile
{
    version     2.0;
    format      ascii;
    class       volScalarField;
    location    "2.74";
    object      p_rgh;
}
// * * * * * * * * * * * * * * * * * * * * * * * * * * * * * * * * * * * * * //

dimensions      [1 -1 -2 0 0 0 0];

internalField   nonuniform List<scalar> 
256
(
99994.8
99994.6
99994.4
99995.1
99994.8
99994.6
99994.6
99995.4
99995.1
99994.7
99994.5
99995.4
99995.6
99995.8
99994.2
99995.1
99996.8
99996.8
99997.2
99997.5
99997.1
99997
99997.4
99997.7
99997.2
99997.2
99997.1
99997.8
99997.1
99996.9
99996.8
99997.3
100000
100001
100001
100001
100000
100001
100001
100001
100000
100001
100000
100001
99999.7
99999.9
100000
100001
100003
100004
100004
100004
100003
100004
100004
100005
100003
100004
100003
100004
100003
100003
100003
100003
100007
100007
100007
100006
100006
100008
100007
100006
100006
100008
100007
100006
100006
100006
100007
100007
100008
100009
100008
100006
100008
100009
100009
100007
100008
100010
100008
100008
100008
100009
100009
100008
100007
100008
100007
100006
100007
100009
100008
100006
100008
100005
100008
100007
100008
100009
100009
100007
100007
100007
100006
100006
100008
100007
100008
100007
100007
99999.9
100007
100007
100007
100005
100008
100007
100005
100003
100006
100006
100005
99997.9
100004
100006
99998.7
99992.9
99998
100004
100003
99998.4
100002
100005
100004
100001
100004
100005
100002
99997.2
100001
100003
99999.1
99996.2
99997.8
100000
100001
99999
100000
100002
100002
100000
100001
100001
100001
100001
100001
99998.8
99999.9
100002
100002
99999.4
100001
100001
100000
99999.8
100000
100000
99999.2
99999
99999.2
100001
99999.7
99998.4
100000
100003
100001
99998.4
99999.6
100001
99999.2
99998.8
99995.2
99997
99995.8
99994.1
99995.7
99998.9
99996.5
99995.4
99997.1
99999.2
99998.2
99994.7
99996.6
99996
99996.4
99995.3
99992.3
99991.4
99993
99992.2
99992.7
99993.3
99992.8
99992.4
99993.2
99992.3
99993.5
99992.6
99993.1
99991
99992.7
99992.6
99991.3
99989.5
99991.7
99992.2
99991.9
99991.2
99991.8
99992.1
99992.1
99990.3
99991.8
99992.3
99989.6
99988.3
99990.9
99991.5
99992.9
99992.7
99992.7
99993.4
99993.1
99992.6
99993.1
99993.4
99993.1
99992.8
99992.8
99993.1
99992.9
99993.1
99992.6
99992.9
)
;

boundaryField
{
    bottom
    {
        type            cyclic;
    }
    top
    {
        type            cyclic;
    }
    lr1
    {
        type            cyclic;
    }
    lr2
    {
        type            cyclic;
    }
    vh1
    {
        type            cyclic;
    }
    vh2
    {
        type            cyclic;
    }
}


// ************************************************************************* //
