/*--------------------------------*- C++ -*----------------------------------*\
  =========                 |
  \\      /  F ield         | OpenFOAM: The Open Source CFD Toolbox
   \\    /   O peration     | Website:  https://openfoam.org
    \\  /    A nd           | Version:  6
     \\/     M anipulation  |
\*---------------------------------------------------------------------------*/
FoamFile
{
    version     2.0;
    format      ascii;
    class       surfaceScalarField;
    location    "2.74";
    object      phi;
}
// * * * * * * * * * * * * * * * * * * * * * * * * * * * * * * * * * * * * * //

dimensions      [0 3 -1 0 0 0 0];

internalField   nonuniform List<scalar> 
624
(
9.645e-08
7.85687e-08
4.05335e-07
1.02387e-07
9.12897e-08
1.93042e-06
-1.45595e-07
3.53581e-08
6.15406e-07
-5.77755e-09
3.3999e-07
6.24851e-08
-7.88269e-08
2.67551e-07
-1.10281e-09
-8.25532e-08
5.47379e-07
-2.00372e-07
-6.48645e-08
2.37371e-07
-7.97678e-08
2.72918e-07
1.07334e-07
-1.15922e-07
3.33813e-08
5.35186e-08
-2.52594e-07
1.72099e-06
-2.15008e-07
1.2272e-08
4.02227e-07
1.01804e-08
4.67248e-07
3.4252e-08
4.82842e-07
4.25193e-07
1.53755e-06
-1.58126e-07
1.38248e-06
5.72046e-07
-2.62579e-08
8.64198e-08
5.41176e-07
-4.31265e-08
9.36826e-08
2.0207e-06
-8.09788e-08
4.88134e-08
7.09609e-07
4.02185e-08
3.11116e-07
-3.80954e-08
1.28246e-07
2.72774e-07
-4.82008e-08
-9.62243e-08
7.47391e-07
-5.6353e-08
-7.99559e-09
3.02336e-07
-2.07376e-08
2.68574e-07
-3.94328e-08
1.84423e-07
4.7573e-08
4.51242e-08
4.37993e-08
1.49639e-06
-7.96422e-08
1.01135e-07
4.17868e-07
1.40619e-07
1.95329e-07
4.37592e-08
4.47076e-07
8.35464e-08
1.37445e-06
-7.67653e-08
1.53875e-06
5.24025e-07
-1.75053e-07
6.6497e-09
7.76912e-07
-2.38037e-08
1.40987e-07
1.71076e-06
-7.79811e-08
3.9978e-08
7.38547e-07
3.85756e-08
9.65146e-08
-4.45025e-08
1.10139e-07
2.89996e-07
-6.1448e-08
-6.74868e-08
9.72805e-07
-4.33232e-08
2.86071e-09
3.21338e-07
-1.80665e-08
2.05704e-07
-2.75917e-07
1.32954e-07
3.39403e-07
6.22633e-08
1.36821e-07
9.53896e-07
2.81579e-08
1.86691e-08
4.36173e-07
-1.20303e-08
1.7875e-07
-1.17132e-07
7.73205e-07
-8.18389e-08
1.49366e-06
-3.74102e-08
1.49824e-06
4.29285e-07
-2.04392e-07
6.04541e-08
9.2388e-07
-6.09462e-08
8.54269e-08
1.36695e-06
-1.03882e-08
1.12862e-07
5.61472e-07
-1.10283e-08
-1.68621e-08
-8.79623e-08
2.79754e-08
5.58983e-07
-1.07272e-08
4.25098e-08
9.3848e-07
-9.38599e-08
-6.03467e-09
5.23377e-07
5.40464e-08
-1.01747e-07
-3.05501e-07
2.29995e-08
5.66141e-07
1.87298e-08
1.14402e-07
5.57778e-07
-3.87041e-08
-3.94817e-08
5.27062e-07
-2.25878e-08
3.00441e-07
-2.1137e-07
1.00382e-06
-2.18697e-07
1.7303e-06
-7.42219e-08
1.32793e-06
4.47246e-07
-1.9359e-07
7.26099e-08
9.72091e-07
-3.86669e-08
8.64023e-08
1.07577e-06
1.34673e-07
1.10595e-07
2.79721e-07
2.99184e-08
1.80086e-07
-1.3281e-07
-1.20562e-08
8.15116e-07
4.95773e-08
8.25241e-10
8.41673e-07
9.93257e-08
3.03111e-08
5.53923e-07
-5.08238e-08
3.96892e-08
-2.17032e-07
-6.33963e-08
8.30607e-07
1.27482e-07
1.31203e-07
8.29006e-08
8.65601e-08
-1.19265e-07
7.17569e-07
-9.36972e-08
4.33802e-07
-2.1649e-07
1.14724e-06
-1.94942e-07
1.8898e-06
6.02428e-08
9.51309e-07
4.04086e-07
-2.71027e-07
2.30381e-08
1.08221e-06
-4.99929e-08
4.49393e-08
8.76754e-07
9.24481e-08
2.71801e-08
1.21478e-07
-1.33375e-08
5.42166e-07
-2.1284e-07
-1.41161e-08
1.00871e-06
1.63816e-08
1.94135e-08
6.37985e-07
1.73972e-07
4.97652e-08
3.7376e-07
-1.32997e-07
3.89746e-07
-2.20942e-07
-5.45652e-08
1.09262e-06
1.13686e-07
5.81777e-08
-2.90474e-07
1.23181e-07
-1.18768e-07
8.76619e-07
-6.67862e-08
4.90173e-07
-3.78267e-07
1.4064e-06
-9.64448e-08
1.59922e-06
1.15571e-07
6.09175e-07
3.99042e-07
-1.99484e-07
-4.32438e-08
1.15218e-06
3.86527e-08
1.25997e-08
7.13149e-07
5.62219e-09
-5.93962e-08
3.03767e-07
-1.47988e-07
1.03219e-06
-1.77221e-07
-9.15023e-08
1.08914e-06
6.82261e-08
1.91051e-07
2.14093e-07
1.5281e-07
-6.6208e-08
2.95995e-07
-1.81435e-07
7.2107e-07
1.36914e-07
-5.4363e-08
8.60963e-07
-1.60226e-07
-1.92599e-07
3.90341e-07
1.04566e-07
-7.31595e-08
6.1879e-07
-1.57634e-08
4.8669e-07
-2.80135e-07
1.33181e-06
-1.39869e-08
1.05337e-06
1.27423e-07
3.04758e-07
6.47439e-07
-6.21795e-08
-1.35113e-07
1.19801e-06
8.51842e-08
-7.47479e-09
4.39338e-07
-4.42344e-08
-8.66123e-08
4.94042e-07
-7.85583e-08
1.21731e-06
1.4105e-08
2.72774e-08
7.51563e-07
2.7133e-08
1.38811e-07
5.48005e-08
1.05387e-07
3.35868e-08
9.7546e-08
-8.66146e-08
9.95624e-07
2.82512e-07
-4.08466e-08
7.04781e-07
-2.46192e-07
-2.96789e-07
1.35472e-06
-3.21728e-08
-6.42288e-08
5.02606e-07
2.69377e-09
3.07041e-07
1.06712e-07
1.10234e-06
-6.38886e-08
1.06118e-06
4.99559e-08
1.52459e-07
7.82731e-07
1.6533e-07
-7.56568e-08
9.81977e-07
-1.1842e-07
1.67849e-07
2.72852e-07
-6.91221e-08
1.90902e-08
1.52203e-07
3.27884e-08
8.36456e-07
3.30028e-07
9.61216e-08
3.50191e-07
-2.22534e-07
5.77538e-08
7.17514e-07
-1.68577e-07
1.8019e-07
-1.17483e-07
2.31627e-07
5.27847e-07
3.37611e-07
-2.65065e-07
9.76167e-07
-2.47989e-07
-5.17811e-07
2.51595e-06
-3.06833e-07
-2.57555e-07
9.99258e-07
-7.75905e-08
6.17232e-08
2.53975e-07
9.25622e-07
-1.88512e-07
1.26836e-06
-1.81437e-07
1.61335e-07
5.86788e-07
1.70662e-07
1.73793e-08
6.51775e-07
-9.95468e-08
3.24825e-08
3.81843e-07
-8.36728e-08
-1.47046e-08
-6.38158e-08
5.58287e-09
5.16051e-07
1.67734e-07
8.39708e-08
1.63676e-07
-1.12185e-07
-9.30639e-08
1.123e-06
-1.52812e-07
6.81216e-08
-1.59655e-07
1.87895e-07
1.44981e-07
1.79594e-07
-6.22095e-08
9.57376e-07
-8.13565e-08
-3.09818e-07
2.99361e-06
-1.44258e-07
-9.88282e-08
1.22914e-06
-1.08601e-08
1.01671e-07
1.41627e-07
9.36821e-07
-4.91159e-08
1.27806e-06
-1.23767e-07
3.52044e-07
6.10512e-07
5.23921e-08
-6.21471e-08
5.94726e-07
-9.68875e-09
-9.05778e-08
6.8975e-07
-2.97912e-08
-1.17211e-07
7.34457e-08
-2.66555e-08
4.89283e-07
-2.91589e-08
1.2571e-07
-1.01566e-07
-2.44449e-08
-9.51506e-08
1.12287e-06
5.17954e-08
8.77699e-08
-4.40855e-07
5.50912e-08
2.21616e-07
-1.79859e-07
1.20282e-07
1.05338e-06
6.18306e-08
2.73462e-07
2.38328e-06
1.11131e-07
2.87417e-07
9.80207e-07
1.20434e-07
2.36797e-07
-3.7945e-08
1.03465e-06
6.30073e-08
1.29535e-06
2.35736e-08
6.78964e-07
9.05415e-07
-6.79951e-09
-2.03691e-08
5.30408e-07
4.84375e-08
-1.02545e-07
9.07976e-07
6.1704e-09
-6.23748e-08
2.19651e-07
-2.74222e-08
5.70859e-07
-1.52787e-07
-9.16564e-09
-2.84635e-08
4.01287e-08
-8.54268e-08
9.12836e-07
6.61315e-08
1.83389e-08
-5.47582e-07
4.46487e-08
2.84145e-07
-3.02204e-07
1.10395e-07
1.08432e-06
8.58415e-08
3.54475e-07
1.55535e-06
1.67508e-07
2.43241e-07
6.73639e-07
6.47072e-08
5.35966e-07
-1.43143e-07
1.20991e-06
1.07498e-07
1.22826e-06
2.46798e-08
9.63426e-07
1.11659e-06
-1.69777e-07
-1.56445e-08
7.26692e-07
4.77408e-08
-1.5202e-07
8.45349e-07
9.08868e-08
-3.42606e-08
2.83573e-07
-7.16646e-08
9.1998e-07
-2.17657e-07
-1.06877e-07
2.2571e-07
9.98004e-08
5.76565e-09
4.37556e-07
7.11376e-08
-6.2048e-08
-4.91178e-07
5.56856e-08
2.82583e-07
-2.83815e-07
6.669e-08
9.46853e-07
2.30614e-08
3.11596e-07
9.42625e-07
2.07201e-07
1.2774e-07
2.99668e-07
-1.69685e-08
1.06348e-06
-4.10795e-08
1.03849e-06
-3.62825e-08
1.53215e-06
7.72267e-08
9.04774e-07
1.25851e-06
7.78307e-08
-1.20839e-08
7.28609e-07
-9.69951e-08
-1.36333e-07
1.1594e-06
1.1219e-08
4.80816e-08
1.29323e-07
3.45496e-08
9.8756e-07
-4.41767e-08
-9.46468e-08
2.87806e-07
4.2175e-08
7.76875e-08
1.37137e-07
9.66453e-09
-5.83647e-08
-3.52271e-07
-4.84118e-08
4.39772e-07
7.77099e-08
-2.45918e-08
7.34551e-07
-7.75544e-08
1.23932e-07
1.05161e-06
4.28237e-08
1.18728e-09
1.19696e-07
-6.44588e-08
1.18681e-06
7.30738e-08
7.75942e-07
-1.86042e-07
1.91228e-06
-5.24345e-08
7.70238e-07
1.1478e-06
2.75557e-07
-4.23407e-08
4.40947e-07
-1.37662e-07
-1.58092e-07
1.63125e-06
-1.36851e-07
8.49832e-09
6.90222e-08
9.11151e-08
5.90694e-07
9.66826e-08
-6.28395e-08
1.96893e-07
-8.11857e-08
6.94052e-08
8.74776e-08
-1.37006e-07
-5.93987e-08
-2.28584e-07
-9.3089e-08
5.01638e-07
2.43895e-07
1.60241e-07
2.99588e-07
-1.25816e-07
1.60256e-07
1.33043e-06
-1.47934e-07
6.21485e-09
7.61708e-08
1.03408e-08
9.03368e-07
1.91125e-07
1.1464e-06
-3.01186e-07
2.66419e-06
-1.91442e-07
7.17634e-07
7.88593e-07
1.28197e-07
-2.37219e-08
7.51748e-08
4.23291e-08
-1.38267e-07
-1.45829e-08
-7.39756e-08
6.88342e-08
-9.59938e-08
-5.91162e-08
-5.22145e-08
-1.65341e-07
-7.48371e-08
-1.09336e-07
1.22284e-07
-4.56944e-08
-3.12364e-09
-9.35819e-08
-1.43372e-07
-6.92724e-08
-9.82115e-08
8.47371e-08
8.83607e-08
-1.55945e-07
)
;

boundaryField
{
    bottom
    {
        type            cyclic;
        value           nonuniform List<scalar> 
16
(
-3.75295e-07
-1.42492e-07
-1.12704e-07
-9.95586e-07
-1.71121e-06
-3.09954e-07
-1.49716e-06
-2.49757e-06
-3.17324e-07
6.21183e-08
-2.10838e-07
-8.72352e-07
-4.1173e-07
-4.29459e-07
-7.6313e-07
-6.30574e-07
)
;
    }
    top
    {
        type            cyclic;
        value           nonuniform List<scalar> 
16
(
3.75295e-07
1.42492e-07
1.12704e-07
9.95586e-07
1.71121e-06
3.09954e-07
1.49716e-06
2.49757e-06
3.17324e-07
-6.21183e-08
2.10838e-07
8.72352e-07
4.1173e-07
4.29459e-07
7.6313e-07
6.30574e-07
)
;
    }
    lr1
    {
        type            cyclic;
        value           nonuniform List<scalar> 
64
(
8.44455e-09
-3.01516e-08
9.0842e-09
1.49056e-07
-1.65708e-08
-8.94998e-09
-3.09252e-08
-2.98644e-09
-7.78446e-08
-7.61985e-08
-3.87135e-08
-6.552e-08
-6.04594e-08
-1.48536e-07
8.37475e-08
6.11835e-08
5.53743e-08
-3.86497e-08
3.91542e-09
2.70789e-08
1.62556e-07
5.64116e-08
-6.12766e-10
3.98783e-08
2.80734e-07
1.45055e-07
5.76153e-08
1.92405e-07
1.61621e-07
1.61098e-07
-5.8173e-08
7.17984e-08
-8.02414e-08
-1.00383e-07
-2.47736e-07
-1.35648e-07
-4.987e-08
-4.77678e-08
-1.45835e-08
-2.29509e-08
2.94463e-08
1.06569e-07
8.93114e-08
9.77901e-08
6.00029e-08
6.84735e-08
1.5172e-07
1.09767e-07
1.2059e-07
5.46766e-08
2.47682e-07
1.47681e-07
3.50557e-08
6.4598e-08
6.4496e-08
6.20986e-08
-8.9791e-08
1.46978e-08
-3.20483e-08
-2.57164e-07
-1.19627e-08
5.78225e-08
1.42811e-08
-6.53107e-09
)
;
    }
    lr2
    {
        type            cyclic;
        value           nonuniform List<scalar> 
64
(
-8.44455e-09
3.01516e-08
-9.0842e-09
-1.49056e-07
1.65708e-08
8.94998e-09
3.09252e-08
2.98644e-09
7.78446e-08
7.61985e-08
3.87135e-08
6.552e-08
6.04594e-08
1.48536e-07
-8.37475e-08
-6.11835e-08
-5.53743e-08
3.86497e-08
-3.91542e-09
-2.70789e-08
-1.62556e-07
-5.64116e-08
6.12766e-10
-3.98783e-08
-2.80734e-07
-1.45055e-07
-5.76153e-08
-1.92405e-07
-1.61621e-07
-1.61098e-07
5.8173e-08
-7.17984e-08
8.02414e-08
1.00383e-07
2.47736e-07
1.35648e-07
4.987e-08
4.77678e-08
1.45835e-08
2.29509e-08
-2.94463e-08
-1.06569e-07
-8.93114e-08
-9.77901e-08
-6.00029e-08
-6.84735e-08
-1.5172e-07
-1.09767e-07
-1.2059e-07
-5.46766e-08
-2.47682e-07
-1.47681e-07
-3.50557e-08
-6.4598e-08
-6.4496e-08
-6.20986e-08
8.9791e-08
-1.46978e-08
3.20483e-08
2.57164e-07
1.19627e-08
-5.78225e-08
-1.42811e-08
6.53107e-09
)
;
    }
    vh1
    {
        type            cyclic;
        value           nonuniform List<scalar> 
64
(
-2.13505e-07
-1.79427e-07
1.05153e-08
5.74298e-08
1.74002e-08
-2.46694e-08
-1.07969e-07
-1.01363e-08
2.06627e-07
1.92057e-07
3.73772e-08
3.14828e-08
-1.3148e-07
-1.02754e-07
1.44212e-07
-2.68787e-08
-3.16467e-07
-1.67115e-07
1.7676e-08
1.14927e-07
4.98515e-08
-6.69395e-08
-8.71227e-08
1.33938e-07
2.82426e-07
1.28765e-07
-1.55227e-07
-1.70924e-07
-2.89926e-09
-2.90748e-09
9.94164e-08
-6.93099e-08
-8.54585e-08
-1.05167e-07
-1.47369e-08
1.36602e-08
-2.17296e-09
-1.136e-08
-8.98525e-08
2.57643e-08
2.7347e-07
2.14865e-07
5.81528e-11
-4.15813e-08
-7.28416e-08
-2.07963e-09
5.09619e-08
-2.02909e-08
-5.96353e-08
-1.08892e-07
2.02118e-08
5.35766e-08
-3.67988e-08
-9.37223e-08
-5.56753e-08
1.08337e-08
1.9871e-07
1.81289e-07
5.3094e-08
1.20218e-08
-6.59966e-08
-5.58857e-08
7.90786e-08
1.02691e-07
)
;
    }
    vh2
    {
        type            cyclic;
        value           nonuniform List<scalar> 
64
(
2.13505e-07
1.79427e-07
-1.05153e-08
-5.74298e-08
-1.74002e-08
2.46694e-08
1.07969e-07
1.01363e-08
-2.06627e-07
-1.92057e-07
-3.73772e-08
-3.14828e-08
1.3148e-07
1.02754e-07
-1.44212e-07
2.68787e-08
3.16467e-07
1.67115e-07
-1.7676e-08
-1.14927e-07
-4.98515e-08
6.69395e-08
8.71227e-08
-1.33938e-07
-2.82426e-07
-1.28765e-07
1.55227e-07
1.70924e-07
2.89926e-09
2.90748e-09
-9.94164e-08
6.93099e-08
8.54585e-08
1.05167e-07
1.47369e-08
-1.36602e-08
2.17296e-09
1.136e-08
8.98525e-08
-2.57643e-08
-2.7347e-07
-2.14865e-07
-5.81528e-11
4.15813e-08
7.28416e-08
2.07963e-09
-5.09619e-08
2.02909e-08
5.96353e-08
1.08892e-07
-2.02118e-08
-5.35766e-08
3.67988e-08
9.37223e-08
5.56753e-08
-1.08337e-08
-1.9871e-07
-1.81289e-07
-5.3094e-08
-1.20218e-08
6.59966e-08
5.58857e-08
-7.90786e-08
-1.02691e-07
)
;
    }
}


// ************************************************************************* //
