/*--------------------------------*- C++ -*----------------------------------*\
  =========                 |
  \\      /  F ield         | OpenFOAM: The Open Source CFD Toolbox
   \\    /   O peration     | Website:  https://openfoam.org
    \\  /    A nd           | Version:  6
     \\/     M anipulation  |
\*---------------------------------------------------------------------------*/
FoamFile
{
    version     2.0;
    format      ascii;
    class       surfaceScalarField;
    location    "2.74";
    object      phi.air;
}
// * * * * * * * * * * * * * * * * * * * * * * * * * * * * * * * * * * * * * //

dimensions      [0 3 -1 0 0 0 0];

internalField   nonuniform List<scalar> 
624
(
1.00872e-07
8.36165e-08
5.1917e-07
1.09117e-07
9.39716e-08
2.09795e-06
-1.54872e-07
3.38643e-08
7.32477e-07
-1.2428e-08
4.0339e-07
6.65865e-08
-7.82894e-08
3.24525e-07
1.16058e-09
-8.37875e-08
6.99152e-07
-2.12905e-07
-6.32136e-08
2.82482e-07
-8.21128e-08
3.04346e-07
1.12802e-07
-1.22202e-07
9.22322e-08
5.82167e-08
-2.67575e-07
1.89013e-06
-2.28672e-07
1.77373e-08
4.73364e-07
1.60156e-08
5.16686e-07
3.22343e-08
5.69634e-07
4.54639e-07
1.65177e-06
-1.64614e-07
1.52208e-06
6.39749e-07
-2.71691e-08
9.44118e-08
6.39826e-07
-4.69136e-08
9.48213e-08
2.16862e-06
-9.06418e-08
5.03791e-08
8.09807e-07
4.13857e-08
3.68344e-07
-4.21017e-08
1.48493e-07
3.19375e-07
-5.35028e-08
-9.841e-08
9.13302e-07
-6.21366e-08
1.45104e-09
3.46275e-07
-1.10076e-08
2.85582e-07
-4.13473e-08
1.9982e-07
9.28502e-08
4.7777e-08
4.96805e-08
1.63916e-06
-9.04671e-08
1.14374e-07
4.87449e-07
1.6165e-07
2.31498e-07
4.52273e-08
5.13369e-07
8.71859e-08
1.46092e-06
-8.43857e-08
1.67937e-06
5.9597e-07
-1.85171e-07
4.44318e-09
8.46338e-07
-2.59373e-08
1.44295e-07
1.8514e-06
-9.473e-08
3.94015e-08
8.10737e-07
3.88763e-08
1.657e-07
-4.9675e-08
1.26208e-07
3.29085e-07
-6.7807e-08
-6.94607e-08
1.11107e-06
-5.14497e-08
7.78947e-09
3.62342e-07
-1.1e-08
2.39656e-07
-2.94974e-07
1.46116e-07
3.79651e-07
6.53916e-08
1.50756e-07
1.08398e-06
2.13095e-08
2.37578e-08
4.89603e-07
-4.30119e-09
2.24673e-07
-1.24116e-07
8.37717e-07
-8.91568e-08
1.59255e-06
-4.77007e-08
1.63845e-06
5.18272e-07
-2.17113e-07
6.09822e-08
9.72457e-07
-6.48445e-08
8.17996e-08
1.49183e-06
-1.94017e-08
1.16343e-07
6.17348e-07
-1.70478e-08
7.20015e-08
-1.01205e-07
3.40764e-08
6.0235e-07
-9.27932e-09
4.71522e-08
1.028e-06
-1.10886e-07
-4.57145e-09
5.60443e-07
6.46668e-08
-3.96926e-08
-3.36352e-07
2.90043e-08
6.09547e-07
1.97845e-08
1.28286e-07
6.69656e-07
-4.99869e-08
-3.86172e-08
5.68113e-07
-1.9546e-08
3.57627e-07
-2.22302e-07
1.05955e-06
-2.34563e-07
1.8511e-06
-8.98241e-08
1.46265e-06
5.43671e-07
-2.06135e-07
7.42152e-08
1.04574e-06
-4.09292e-08
8.1543e-08
1.2316e-06
1.46115e-07
1.15351e-07
3.74466e-07
2.87117e-08
2.86566e-07
-1.49209e-07
-1.01951e-08
8.81222e-07
5.74768e-08
-2.89075e-09
9.3213e-07
1.05153e-07
3.2676e-08
6.06717e-07
-5.20239e-08
1.06427e-07
-2.43635e-07
-6.38877e-08
9.08008e-07
1.43683e-07
1.50954e-07
2.0697e-07
8.9758e-08
-1.26782e-07
7.79696e-07
-9.8257e-08
5.07849e-07
-2.28379e-07
1.22535e-06
-2.10109e-07
2.05359e-06
6.17372e-08
1.0981e-06
5.35361e-07
-2.97691e-07
2.12057e-08
1.18955e-06
-5.22132e-08
3.81178e-08
1.04527e-06
1.00966e-07
2.35759e-08
2.5715e-07
-1.72947e-08
7.13233e-07
-2.3807e-07
-1.28712e-08
1.09762e-06
2.16458e-08
1.62901e-08
7.4096e-07
1.92137e-07
5.32917e-08
4.51894e-07
-1.45986e-07
4.86079e-07
-2.51296e-07
-5.62597e-08
1.17658e-06
1.30539e-07
6.67247e-08
-1.5019e-07
1.31645e-07
-1.30162e-07
9.52749e-07
-7.23514e-08
5.86928e-07
-4.08666e-07
1.4979e-06
-1.04791e-07
1.76254e-06
1.26006e-07
7.54475e-07
5.73449e-07
-2.23281e-07
-5.01072e-08
1.28133e-06
4.32899e-08
3.35842e-09
8.68052e-07
2.77245e-09
-6.9269e-08
5.06804e-07
-1.60601e-07
1.1918e-06
-2.03506e-07
-9.85644e-08
1.193e-06
7.56098e-08
2.19047e-07
3.18375e-07
1.68247e-07
-7.2929e-08
3.88923e-07
-1.97062e-07
8.16879e-07
1.58136e-07
-5.83351e-08
9.34053e-07
-1.88707e-07
-2.30042e-07
6.66338e-07
1.1842e-07
-8.59945e-08
6.7997e-07
-1.75317e-08
5.52824e-07
-3.11275e-07
1.42761e-06
-2.17044e-08
1.20073e-06
1.42791e-07
4.38355e-07
8.03988e-07
-7.42455e-08
-1.51786e-07
1.34553e-06
9.26393e-08
-1.25188e-08
6.03219e-07
-5.34996e-08
-1.03031e-07
7.43705e-07
-8.54208e-08
1.35393e-06
1.0497e-08
3.27803e-08
9.1155e-07
2.00604e-08
1.47768e-07
3.5486e-07
1.19438e-07
3.67083e-08
2.26803e-07
-9.76214e-08
1.13079e-06
3.35295e-07
-4.61796e-08
9.40386e-07
-2.94174e-07
-3.71126e-07
1.86085e-06
-3.17317e-08
-6.94858e-08
7.45926e-07
6.43838e-09
3.963e-07
1.27508e-07
1.20957e-06
-8.16379e-08
1.30807e-06
5.93955e-08
2.80224e-07
9.18105e-07
1.90342e-07
-7.7311e-08
1.09901e-06
-1.39993e-07
1.91102e-07
4.66338e-07
-7.56781e-08
2.71968e-08
3.41537e-07
3.45633e-08
9.79552e-07
3.82744e-07
9.77634e-08
5.51873e-07
-2.6539e-07
4.45859e-08
1.12998e-06
-1.83584e-07
2.10113e-07
5.82414e-08
2.52793e-07
6.83277e-07
3.90232e-07
-3.40532e-07
1.34376e-06
-2.75009e-07
-6.0701e-07
2.94126e-06
-3.49403e-07
-2.99181e-07
1.3626e-06
-8.96623e-08
2.0412e-07
2.97508e-07
1.05308e-06
-2.14581e-07
1.49765e-06
-2.05182e-07
3.05695e-07
6.81607e-07
1.99541e-07
3.39155e-08
7.70516e-07
-1.19352e-07
4.32165e-08
6.18474e-07
-9.35613e-08
4.60413e-09
1.25741e-07
1.73466e-08
7.32738e-07
1.96546e-07
8.18395e-08
3.72222e-07
-1.34342e-07
-1.19127e-07
1.51303e-06
-1.71383e-07
8.06052e-08
3.93858e-08
2.07232e-07
3.28988e-07
2.10324e-07
-9.58481e-08
1.33865e-06
-8.85175e-08
-3.53013e-07
3.37868e-06
-1.59064e-07
-1.19196e-07
1.58369e-06
-3.09397e-08
3.0003e-07
1.64385e-07
1.10898e-06
-5.53453e-08
1.43794e-06
-1.40427e-07
5.06644e-07
7.56669e-07
6.479e-08
-5.77305e-08
7.48742e-07
-1.04267e-08
-8.43232e-08
9.07089e-07
-3.17921e-08
-1.17173e-07
3.35677e-07
-1.11064e-08
7.30936e-07
-2.49499e-08
1.38844e-07
5.12026e-08
-2.92187e-08
-1.07836e-07
1.39831e-06
6.59109e-08
1.07436e-07
-2.47897e-07
5.45433e-08
4.44117e-07
-2.00733e-07
1.21418e-07
1.29177e-06
6.83131e-08
2.9914e-07
2.74071e-06
1.28742e-07
3.27275e-07
1.28121e-06
1.23133e-07
4.43703e-07
-3.65625e-08
1.17314e-06
7.14452e-08
1.42352e-06
2.80946e-08
8.01226e-07
1.08846e-06
-6.04388e-09
-1.06611e-08
6.84098e-07
5.74184e-08
-1.06755e-07
1.11117e-06
7.95495e-09
-6.55175e-08
4.68947e-07
-2.15921e-08
7.63332e-07
-1.7036e-07
-1.69023e-08
8.73721e-08
4.8863e-08
-1.00445e-07
1.08071e-06
7.30017e-08
1.67811e-08
-4.00725e-07
4.49185e-08
4.49523e-07
-3.32444e-07
1.20457e-07
1.22591e-06
1.00855e-07
3.873e-07
1.77473e-06
1.86772e-07
2.71186e-07
8.95084e-07
6.4715e-08
7.54233e-07
-1.55676e-07
1.32597e-06
1.24017e-07
1.35452e-06
2.88299e-08
1.11067e-06
1.28336e-06
-1.86525e-07
-1.86836e-08
8.48743e-07
5.82131e-08
-1.70191e-07
1.03147e-06
1.06307e-07
-3.99355e-08
5.0171e-07
-8.25173e-08
1.08675e-06
-2.47676e-07
-1.22685e-07
3.378e-07
1.18672e-07
2.17764e-09
5.90398e-07
7.89326e-08
-7.33917e-08
-3.85031e-07
5.98873e-08
4.21282e-07
-3.0837e-07
7.33023e-08
1.06964e-06
3.0251e-08
3.43736e-07
1.09733e-06
2.35287e-07
1.46262e-07
4.90256e-07
-2.44999e-08
1.2493e-06
-3.57901e-08
1.12604e-06
-4.07272e-08
1.76212e-06
8.76146e-08
1.10941e-06
1.41312e-06
8.91268e-08
-1.70794e-08
8.41656e-07
-1.11882e-07
-1.56703e-07
1.39536e-06
1.93397e-08
4.94078e-08
2.88577e-07
3.30101e-08
1.11265e-06
-5.03269e-08
-1.01326e-07
3.73613e-07
4.637e-08
8.78227e-08
2.43711e-07
1.20553e-08
-6.56864e-08
-2.7609e-07
-5.41452e-08
5.44147e-07
8.79544e-08
-2.47339e-08
8.11701e-07
-9.08855e-08
1.34512e-07
1.25732e-06
4.95194e-08
8.20898e-09
2.33035e-07
-6.79551e-08
1.31181e-06
9.43429e-08
9.36317e-07
-2.02666e-07
2.30662e-06
-5.24239e-08
9.81426e-07
1.26366e-06
3.00192e-07
-5.00805e-08
5.66084e-07
-1.5751e-07
-1.78305e-07
1.88216e-06
-1.43434e-07
5.17235e-09
1.98884e-07
9.16838e-08
6.84791e-07
1.03863e-07
-6.73037e-08
2.72963e-07
-8.84853e-08
7.88769e-08
2.1512e-07
-1.41846e-07
-6.05522e-08
-1.74132e-07
-9.74011e-08
5.80817e-07
2.64975e-07
1.87098e-07
3.83667e-07
-1.42497e-07
1.80148e-07
1.58749e-06
-1.55554e-07
1.42531e-08
1.473e-07
2.07537e-08
9.78362e-07
2.0714e-07
1.29689e-06
-3.28593e-07
3.00579e-06
-1.98971e-07
8.87348e-07
8.69223e-07
1.34893e-07
-3.10828e-08
8.35532e-08
4.47599e-08
-1.45987e-07
-2.31202e-08
-9.37567e-08
7.13815e-08
-1.02846e-07
-6.48138e-08
-5.53028e-08
-1.75847e-07
-7.78882e-08
-1.18399e-07
1.27594e-07
-4.42546e-08
-2.21397e-09
-9.93959e-08
-1.48845e-07
-7.15337e-08
-9.9208e-08
8.4814e-08
1.00769e-07
-1.59177e-07
)
;

boundaryField
{
    bottom
    {
        type            cyclic;
        value           nonuniform List<scalar> 
16
(
-4.94916e-07
-2.08804e-07
-1.85879e-07
-1.09485e-06
-1.91873e-06
-4.54532e-07
-1.70857e-06
-2.68931e-06
-4.5411e-07
9.61458e-09
-2.78446e-07
-1.01852e-06
-4.89032e-07
-4.86637e-07
-8.10244e-07
-6.98417e-07
)
;
    }
    top
    {
        type            cyclic;
        value           nonuniform List<scalar> 
16
(
4.94916e-07
2.08804e-07
1.85879e-07
1.09485e-06
1.91873e-06
4.54532e-07
1.70857e-06
2.68931e-06
4.5411e-07
-9.61458e-09
2.78446e-07
1.01852e-06
4.89032e-07
4.86637e-07
8.10244e-07
6.98417e-07
)
;
    }
    lr1
    {
        type            cyclic;
        value           nonuniform List<scalar> 
64
(
5.59072e-09
-3.61843e-08
7.40468e-09
1.57805e-07
-1.92559e-08
-1.0401e-08
-3.46016e-08
-2.36029e-09
-8.8158e-08
-8.35232e-08
-4.08387e-08
-6.84793e-08
-6.63399e-08
-1.62754e-07
1.00774e-07
6.93888e-08
6.40776e-08
-3.45288e-08
8.95245e-09
3.14086e-08
1.89523e-07
7.33131e-08
3.53815e-09
4.77727e-08
3.14994e-07
1.65806e-07
6.77618e-08
2.16763e-07
1.79272e-07
1.85285e-07
-5.7985e-08
8.20767e-08
-8.92229e-08
-1.08203e-07
-2.81156e-07
-1.52743e-07
-5.69326e-08
-5.99409e-08
-1.96076e-08
-2.88429e-08
3.31693e-08
1.23378e-07
9.57416e-08
1.06778e-07
7.08609e-08
7.7781e-08
1.7087e-07
1.18088e-07
1.32028e-07
6.01999e-08
2.76885e-07
1.61631e-07
3.51065e-08
7.02781e-08
7.35546e-08
6.71647e-08
-1.00503e-07
1.35197e-08
-3.32081e-08
-2.80999e-07
-1.45064e-08
6.30971e-08
1.59969e-08
-6.62963e-09
)
;
    }
    lr2
    {
        type            cyclic;
        value           nonuniform List<scalar> 
64
(
-5.59072e-09
3.61843e-08
-7.40468e-09
-1.57805e-07
1.92559e-08
1.0401e-08
3.46016e-08
2.36029e-09
8.8158e-08
8.35232e-08
4.08387e-08
6.84793e-08
6.63399e-08
1.62754e-07
-1.00774e-07
-6.93888e-08
-6.40776e-08
3.45288e-08
-8.95245e-09
-3.14086e-08
-1.89523e-07
-7.33131e-08
-3.53815e-09
-4.77727e-08
-3.14994e-07
-1.65806e-07
-6.77618e-08
-2.16763e-07
-1.79272e-07
-1.85285e-07
5.7985e-08
-8.20767e-08
8.92229e-08
1.08203e-07
2.81156e-07
1.52743e-07
5.69326e-08
5.99409e-08
1.96076e-08
2.88429e-08
-3.31693e-08
-1.23378e-07
-9.57416e-08
-1.06778e-07
-7.08609e-08
-7.7781e-08
-1.7087e-07
-1.18088e-07
-1.32028e-07
-6.01999e-08
-2.76885e-07
-1.61631e-07
-3.51065e-08
-7.02781e-08
-7.35546e-08
-6.71647e-08
1.00503e-07
-1.35197e-08
3.32081e-08
2.80999e-07
1.45064e-08
-6.30971e-08
-1.59969e-08
6.62963e-09
)
;
    }
    vh1
    {
        type            cyclic;
        value           nonuniform List<scalar> 
64
(
-2.26729e-07
-1.87729e-07
1.43873e-08
6.41158e-08
2.17755e-08
-2.50696e-08
-1.1968e-07
-1.78491e-08
2.29835e-07
2.19365e-07
3.82283e-08
3.10429e-08
-1.47659e-07
-1.11478e-07
1.65394e-07
-2.79682e-08
-3.33938e-07
-1.70623e-07
2.77293e-08
1.30885e-07
6.20547e-08
-6.89215e-08
-9.96192e-08
1.48464e-07
3.22155e-07
1.38934e-07
-1.80214e-07
-1.87442e-07
5.19633e-09
3.55724e-09
1.13689e-07
-7.47445e-08
-8.60603e-08
-1.07498e-07
-1.2389e-08
1.85904e-08
-8.48858e-13
-1.73832e-08
-1.07161e-07
1.32441e-08
2.99139e-07
2.381e-07
-9.77231e-09
-4.80361e-08
-8.03909e-08
9.84945e-10
6.27334e-08
-1.62138e-08
-5.97696e-08
-1.12942e-07
2.74667e-08
5.94997e-08
-4.13432e-08
-1.06623e-07
-6.42172e-08
6.48537e-09
2.13845e-07
2.0476e-07
5.82535e-08
8.25145e-09
-7.9631e-08
-6.07503e-08
9.06806e-08
1.15973e-07
)
;
    }
    vh2
    {
        type            cyclic;
        value           nonuniform List<scalar> 
64
(
2.26729e-07
1.87729e-07
-1.43873e-08
-6.41158e-08
-2.17755e-08
2.50696e-08
1.1968e-07
1.78491e-08
-2.29835e-07
-2.19365e-07
-3.82283e-08
-3.10429e-08
1.47659e-07
1.11478e-07
-1.65394e-07
2.79682e-08
3.33938e-07
1.70623e-07
-2.77293e-08
-1.30885e-07
-6.20547e-08
6.89215e-08
9.96192e-08
-1.48464e-07
-3.22155e-07
-1.38934e-07
1.80214e-07
1.87442e-07
-5.19633e-09
-3.55724e-09
-1.13689e-07
7.47445e-08
8.60603e-08
1.07498e-07
1.2389e-08
-1.85904e-08
8.48858e-13
1.73832e-08
1.07161e-07
-1.32441e-08
-2.99139e-07
-2.381e-07
9.77231e-09
4.80361e-08
8.03909e-08
-9.84945e-10
-6.27334e-08
1.62138e-08
5.97696e-08
1.12942e-07
-2.74667e-08
-5.94997e-08
4.13432e-08
1.06623e-07
6.42172e-08
-6.48537e-09
-2.13845e-07
-2.0476e-07
-5.82535e-08
-8.25145e-09
7.9631e-08
6.07503e-08
-9.06806e-08
-1.15973e-07
)
;
    }
}


// ************************************************************************* //
