/*--------------------------------*- C++ -*----------------------------------*\
  =========                 |
  \\      /  F ield         | OpenFOAM: The Open Source CFD Toolbox
   \\    /   O peration     | Website:  https://openfoam.org
    \\  /    A nd           | Version:  6
     \\/     M anipulation  |
\*---------------------------------------------------------------------------*/
FoamFile
{
    version     2.0;
    format      ascii;
    class       surfaceScalarField;
    location    "2.74";
    object      phi.particles;
}
// * * * * * * * * * * * * * * * * * * * * * * * * * * * * * * * * * * * * * //

dimensions      [0 3 -1 0 0 0 0];

internalField   nonuniform List<scalar> 
624
(
5.30095e-08
3.58757e-08
-5.4861e-07
3.28143e-08
6.61861e-08
-1.81557e-07
-6.50816e-08
4.94586e-08
-4.73762e-07
4.9967e-08
-1.73504e-07
2.92585e-08
-8.37001e-08
-2.41433e-07
-2.05799e-08
-7.14538e-08
-5.71953e-07
-8.63808e-08
-8.18129e-08
-1.86675e-07
-6.00553e-08
2.20535e-08
5.17412e-08
-4.95102e-08
-5.90878e-07
2.76798e-09
-7.30974e-08
-2.75382e-07
-8.6365e-08
-4.94831e-08
-3.15054e-07
-4.91925e-08
7.61852e-08
5.95431e-08
-6.0501e-07
5.46261e-08
8.63383e-08
-7.78433e-08
-3.73117e-07
-2.11297e-07
-1.67819e-08
1.57064e-08
-4.25068e-07
-9.19753e-10
8.30054e-08
2.20061e-07
2.6024e-09
3.4306e-08
-3.58893e-07
3.12054e-08
-2.93911e-08
-5.74599e-09
-8.29677e-08
-1.12331e-07
-5.92859e-09
-7.59773e-08
-5.23897e-07
-8.79666e-09
-9.53186e-08
-4.06221e-08
-9.39921e-08
1.58066e-07
-1.57233e-08
-9.2374e-09
-5.21257e-07
1.60481e-08
-2.97604e-08
-1.16739e-07
1.12305e-08
-4.59401e-08
-2.88548e-07
-4.39308e-08
-3.58356e-08
2.51054e-08
-3.94548e-07
3.73359e-08
2.76675e-07
1.27631e-08
-2.0016e-07
-1.39857e-07
-5.99902e-08
2.67223e-08
-1.55909e-08
9.6625e-10
1.09471e-07
1.55095e-07
3.82107e-08
4.50596e-08
-7.86804e-08
3.70268e-08
-2.15726e-07
-3.97698e-09
-4.43878e-08
5.17081e-09
-1.37172e-08
-4.95858e-08
-1.6194e-07
7.2148e-09
-3.88774e-08
2.15809e-08
-5.76655e-08
4.24659e-08
-5.77162e-08
-3.39517e-08
-1.22231e-07
2.95843e-08
-2.28031e-08
-2.50824e-07
7.9092e-08
-3.83736e-08
-1.3076e-07
-6.34051e-08
-8.55648e-08
-2.85408e-08
-4.49343e-08
8.64695e-09
2.46466e-07
6.1595e-08
-1.79783e-07
-2.06357e-07
-6.31592e-08
5.58142e-08
4.40484e-07
-1.88562e-08
1.19372e-07
3.09991e-07
4.66008e-08
8.13987e-08
1.26683e-07
1.44769e-08
-4.02098e-07
1.28581e-08
-2.31155e-08
2.7169e-07
-2.22789e-08
3.66391e-09
2.60126e-07
-3.19284e-10
-1.90815e-08
2.66536e-07
1.74197e-09
-3.64677e-07
-1.93684e-08
-4.58818e-08
1.72118e-07
8.82303e-09
-2.49093e-08
-1.71803e-07
4.75872e-08
-4.92465e-08
1.27755e-07
-4.12641e-08
-2.42814e-08
-7.35478e-08
3.76304e-07
-2.51278e-08
3.02416e-07
5.76986e-08
-1.13538e-08
-6.91929e-08
-9.64311e-08
6.08691e-08
4.35819e-07
-2.41437e-08
1.20197e-07
1.36898e-07
7.66641e-08
8.14745e-08
-1.48526e-07
3.51496e-08
-2.72708e-07
-2.46306e-08
-2.52388e-08
3.95811e-07
-2.67847e-09
2.31331e-08
2.99495e-07
6.94181e-08
1.27183e-08
2.831e-07
-4.5043e-08
-2.49198e-07
-4.6375e-08
-5.90035e-08
2.11363e-07
1.90273e-08
-1.32003e-08
-4.98447e-07
6.46422e-08
-5.40005e-08
2.04629e-07
-7.09553e-08
4.65615e-08
-9.02566e-08
3.72729e-07
-4.81415e-08
3.20155e-07
5.12848e-08
-4.20874e-08
-1.56977e-07
-1.18427e-07
3.46144e-08
4.4241e-07
-4.04482e-08
8.08545e-08
3.09142e-08
5.97749e-08
4.12514e-08
-3.65672e-07
3.46492e-09
-3.01066e-07
-6.70557e-08
-2.29446e-08
4.38867e-07
-8.46939e-09
3.4029e-08
1.60735e-07
9.53762e-08
3.01944e-08
4.07023e-08
-7.23041e-08
-1.16479e-07
-5.17657e-08
-3.96648e-08
4.59313e-07
2.10665e-08
9.762e-09
-8.71892e-07
7.17123e-08
-4.48064e-08
3.73301e-07
-4.19602e-08
-5.19871e-08
-1.04753e-07
5.98666e-07
-4.03892e-08
5.43395e-07
6.65108e-08
-5.95475e-08
-3.35657e-07
-7.55334e-08
-1.76879e-09
4.27582e-07
1.95394e-08
5.3585e-08
2.71005e-08
1.86314e-08
-2.08598e-08
-4.17625e-07
-6.9139e-08
4.28112e-09
-4.41201e-08
-4.358e-08
4.8019e-07
3.72912e-08
7.60528e-08
-1.59572e-07
7.30484e-08
-3.30947e-08
-6.40148e-08
-8.13364e-08
9.04917e-08
2.49195e-08
-2.42956e-08
4.92474e-07
-2.29371e-08
-2.0043e-08
-6.54337e-07
2.05727e-08
-1.3227e-08
3.61696e-07
-6.49125e-09
7.55608e-08
-8.17709e-08
6.72904e-07
2.04984e-08
4.42008e-07
6.39628e-08
-1.74436e-07
-1.01784e-07
-5.06294e-09
-4.42149e-08
3.92014e-07
5.68989e-08
1.0577e-08
-1.96377e-07
-3.56452e-10
-2.86918e-08
-4.16787e-07
-3.19705e-08
3.52282e-07
2.86298e-08
2.6748e-09
3.2823e-08
5.07223e-08
1.09058e-07
-8.96048e-07
3.91063e-08
2.30578e-08
-3.33576e-07
-1.63541e-08
1.75868e-07
9.0019e-08
-1.58385e-08
-1.30735e-07
-8.50074e-08
-4.05838e-08
-6.96635e-07
-3.40634e-08
-4.70062e-08
-2.78015e-07
-1.83209e-08
-1.42763e-07
1.538e-08
5.6827e-07
-4.25064e-09
1.21495e-07
1.12081e-08
-2.80744e-07
5.65116e-08
5.53308e-08
-6.82115e-08
4.47229e-07
-3.79906e-08
8.841e-08
-4.19911e-07
-3.86775e-08
-8.84289e-09
-4.98304e-07
2.2695e-08
1.9139e-07
1.46308e-07
9.02748e-08
-3.34236e-07
-8.67246e-08
1.08388e-07
-6.20966e-07
-1.07522e-07
8.52378e-08
-6.71721e-07
1.29507e-07
-1.34394e-07
1.3059e-07
1.64643e-08
-1.85695e-07
-1.43934e-07
-1.14414e-07
2.88269e-07
-1.50485e-07
-1.19393e-07
-1.94504e-07
-1.92567e-08
-4.76743e-07
6.81553e-08
4.40321e-07
-8.83243e-08
1.30582e-07
-7.95394e-08
-3.56715e-07
1.31613e-07
6.3708e-08
-3.94596e-08
2.48194e-07
-3.40813e-08
-3.97554e-09
-5.08687e-07
-5.05323e-08
-7.54369e-08
-6.3682e-07
-3.56205e-08
-1.79867e-07
7.66003e-08
9.0409e-08
-4.59319e-07
-4.06287e-08
1.84162e-08
-3.4204e-07
-9.18562e-08
2.73598e-08
-7.60415e-07
1.2225e-07
-4.37222e-07
5.51107e-08
4.61165e-08
-3.32078e-07
-5.03299e-08
-5.90887e-08
8.67333e-07
-9.42611e-08
-2.65094e-08
-3.73471e-08
6.46406e-08
-5.3203e-07
4.19793e-08
3.11568e-07
-2.058e-08
3.3743e-07
-5.76841e-08
-3.27182e-07
1.19265e-08
9.60422e-09
-7.52038e-08
1.36109e-07
-7.16492e-09
-1.16775e-07
-2.66172e-07
-2.39825e-08
-1.17321e-07
-7.63187e-07
-7.19651e-08
-2.62948e-07
-4.4009e-08
8.18112e-08
-5.89388e-07
-7.78152e-09
-3.49698e-08
-1.43938e-07
1.06635e-08
2.30788e-08
-1.01438e-06
5.67263e-08
-4.79629e-07
-8.7008e-08
1.15934e-07
3.57524e-08
3.31838e-08
1.29814e-07
5.33278e-07
5.1717e-08
1.11105e-07
-2.24237e-07
1.11114e-07
-4.42087e-07
-4.4451e-08
4.29691e-07
1.57507e-08
5.41079e-07
3.02172e-09
3.06917e-10
1.32828e-07
-9.60844e-09
-5.16025e-08
-4.26753e-08
1.19751e-08
-8.21522e-08
-1.06612e-07
4.37495e-11
-5.20974e-08
-7.40925e-07
-4.71052e-08
-2.13512e-07
-8.08099e-08
2.21758e-08
-4.86145e-07
6.80096e-09
-1.0206e-08
1.10181e-07
4.40282e-08
2.39087e-08
-1.05316e-06
4.37114e-08
-3.21165e-07
-1.52626e-07
6.08883e-08
3.06937e-07
1.61958e-08
1.76239e-07
4.85638e-07
9.27543e-08
1.05058e-07
-2.31941e-07
6.46762e-08
-3.84666e-07
-7.5479e-08
5.69893e-07
1.1179e-08
5.23796e-07
3.50598e-09
1.53734e-07
2.76044e-07
-8.58394e-08
-1.44759e-09
4.78385e-08
-1.53355e-09
-6.24962e-08
-1.77482e-07
1.94398e-08
-1.11238e-08
-6.86677e-07
-2.32471e-08
-9.12752e-08
-7.97018e-08
-2.26818e-08
-3.99386e-07
1.95647e-08
2.248e-08
-3.51906e-07
4.04494e-08
-1.75153e-08
-9.6748e-07
3.69001e-08
-4.0378e-07
-1.51063e-07
2.56193e-08
1.13996e-07
-7.72249e-09
1.50873e-07
1.81793e-07
8.20171e-08
4.45711e-08
-4.91307e-07
2.35796e-08
-7.13969e-08
-7.12346e-08
5.42863e-07
-1.28546e-08
3.10355e-07
2.08309e-08
-1.83661e-07
2.53039e-07
8.44053e-09
2.19127e-08
-1.44446e-08
-2.01169e-08
-1.85296e-08
-3.13965e-07
-3.56751e-08
4.15529e-08
-6.68388e-07
4.51733e-08
1.76268e-08
-4.952e-09
-4.67889e-08
-3.5398e-07
1.91354e-08
2.21993e-08
-4.88946e-07
-4.12103e-09
-2.34612e-08
-8.15669e-07
-8.65084e-09
-3.36619e-07
1.54887e-08
-2.37186e-08
2.04191e-07
-1.41866e-08
6.86828e-08
-8.43653e-08
5.36091e-09
-3.30272e-08
-4.80028e-07
-3.81579e-08
1.14623e-07
-3.91776e-08
-1.56077e-07
-9.6916e-08
-3.20568e-07
-5.25021e-08
-5.03579e-07
1.70154e-07
1.10824e-07
1.34318e-08
-4.08815e-07
-1.79655e-08
-2.97719e-08
-3.33424e-07
-9.39597e-08
2.91407e-08
-6.98875e-07
8.63268e-08
-1.93552e-07
4.77051e-08
-3.08494e-08
-4.29527e-07
-3.34429e-08
1.32545e-08
-7.2751e-07
-9.85907e-08
-5.14504e-08
-6.61777e-07
-5.2895e-08
-1.79778e-07
1.13262e-07
-1.35256e-08
-2.77686e-07
-2.20181e-08
4.07375e-08
-4.55944e-07
-8.73558e-08
-4.71635e-08
-4.57501e-07
-9.11868e-08
1.17157e-07
9.07667e-08
-1.80306e-08
-1.25749e-07
7.28728e-08
-1.31859e-07
-6.09096e-07
-4.21782e-08
7.48478e-08
3.30461e-08
1.11175e-08
2.31676e-08
-8.09706e-08
4.95082e-08
9.45331e-08
4.93927e-08
-4.21858e-08
-1.50332e-08
-2.88787e-08
-7.46987e-08
-4.81311e-08
-2.22769e-08
8.10164e-08
-5.7621e-08
-1.08816e-08
-4.10103e-08
-8.99685e-08
-4.89518e-08
-8.71331e-08
8.39892e-08
-3.01617e-08
-1.23141e-07
)
;

boundaryField
{
    bottom
    {
        type            cyclic;
        value           nonuniform List<scalar> 
16
(
5.21482e-07
4.36112e-07
4.82533e-07
7.8045e-08
4.88642e-07
7.21914e-07
5.3924e-07
-3.66936e-07
7.0832e-07
5.5841e-07
4.28573e-07
6.84745e-07
2.51493e-07
4.64802e-08
-3.05562e-07
1.64078e-07
)
;
    }
    top
    {
        type            cyclic;
        value           nonuniform List<scalar> 
16
(
-5.21482e-07
-4.36112e-07
-4.82533e-07
-7.8045e-08
-4.88642e-07
-7.21914e-07
-5.3924e-07
3.66936e-07
-7.0832e-07
-5.5841e-07
-4.28573e-07
-6.84745e-07
-2.51493e-07
-4.64802e-08
3.05562e-07
-1.64078e-07
)
;
    }
    lr1
    {
        type            cyclic;
        value           nonuniform List<scalar> 
64
(
3.2139e-08
2.13674e-08
2.40612e-08
4.12295e-08
5.37559e-09
3.13783e-09
3.08603e-09
-1.03474e-08
-7.27516e-09
-2.89226e-08
-2.17742e-08
-3.64513e-08
-2.25943e-08
-7.31702e-08
-4.50678e-08
-9.89232e-09
3.77545e-09
-5.97498e-08
-2.91429e-08
-5.67528e-10
2.7868e-08
-3.20192e-08
-2.62375e-08
-6.36642e-09
7.9549e-08
1.13863e-08
-1.08433e-08
5.19302e-08
5.33414e-08
1.6404e-08
-5.9059e-08
1.44568e-08
-2.97229e-08
-6.48528e-08
-1.22415e-07
-5.35392e-08
-2.33268e-08
-8.64261e-09
1.41802e-09
-5.27451e-10
1.85471e-08
5.71065e-08
6.74956e-08
6.27336e-08
2.56054e-08
3.65436e-08
7.3029e-08
7.01987e-08
6.41767e-08
3.12603e-08
8.2204e-08
6.56293e-08
3.47018e-08
2.63496e-08
-2.4488e-09
3.04772e-08
-1.19056e-08
2.45157e-08
-2.28729e-08
-7.31485e-08
7.69267e-09
1.29844e-08
-8.24536e-10
-5.51277e-09
)
;
    }
    lr2
    {
        type            cyclic;
        value           nonuniform List<scalar> 
64
(
-3.2139e-08
-2.13674e-08
-2.40612e-08
-4.12295e-08
-5.37559e-09
-3.13783e-09
-3.08603e-09
1.03474e-08
7.27516e-09
2.89226e-08
2.17742e-08
3.64513e-08
2.25943e-08
7.31702e-08
4.50678e-08
9.89232e-09
-3.77545e-09
5.97498e-08
2.91429e-08
5.67528e-10
-2.7868e-08
3.20192e-08
2.62375e-08
6.36642e-09
-7.9549e-08
-1.13863e-08
1.08433e-08
-5.19302e-08
-5.33414e-08
-1.6404e-08
5.9059e-08
-1.44568e-08
2.97229e-08
6.48528e-08
1.22415e-07
5.35392e-08
2.33268e-08
8.64261e-09
-1.41802e-09
5.27451e-10
-1.85471e-08
-5.71065e-08
-6.74956e-08
-6.27336e-08
-2.56054e-08
-3.65436e-08
-7.3029e-08
-7.01987e-08
-6.41767e-08
-3.12603e-08
-8.2204e-08
-6.56293e-08
-3.47018e-08
-2.63496e-08
2.4488e-09
-3.04772e-08
1.19056e-08
-2.45157e-08
2.28729e-08
7.31485e-08
-7.69267e-09
-1.29844e-08
8.24536e-10
5.51277e-09
)
;
    }
    vh1
    {
        type            cyclic;
        value           nonuniform List<scalar> 
64
(
-8.42023e-08
-9.30826e-08
-3.52909e-08
-2.42126e-08
-2.32444e-08
-2.15949e-08
-2.97589e-08
3.42743e-08
9.64126e-08
9.15257e-08
3.45216e-08
3.31575e-08
-4.45557e-08
-5.1559e-08
6.45191e-09
-1.80214e-08
-9.61676e-08
-1.22542e-07
-1.04632e-07
-6.7539e-08
-5.61443e-08
-5.40855e-08
-2.45701e-08
7.99139e-08
1.24623e-07
8.39414e-08
-3.3485e-08
-8.43343e-08
-4.58321e-08
-3.85018e-08
7.5242e-09
-1.77071e-08
-7.92485e-08
-7.91916e-08
-4.24223e-08
-4.296e-08
-1.73533e-08
1.52221e-08
-2.53633e-08
6.86317e-08
1.80767e-07
1.35529e-07
3.76117e-08
-1.29226e-08
-3.75199e-08
-1.75076e-08
-1.9637e-08
-5.16198e-08
-5.82742e-08
-7.2316e-08
-2.36366e-08
2.29878e-08
-1.64486e-08
-4.12886e-08
-1.18276e-08
3.66423e-08
1.1249e-07
9.00643e-08
3.57285e-08
2.65871e-08
7.23027e-09
-1.94832e-08
-2.27207e-08
-2.64068e-08
)
;
    }
    vh2
    {
        type            cyclic;
        value           nonuniform List<scalar> 
64
(
8.42023e-08
9.30826e-08
3.52909e-08
2.42126e-08
2.32444e-08
2.15949e-08
2.97589e-08
-3.42743e-08
-9.64126e-08
-9.15257e-08
-3.45216e-08
-3.31575e-08
4.45557e-08
5.1559e-08
-6.45191e-09
1.80214e-08
9.61676e-08
1.22542e-07
1.04632e-07
6.7539e-08
5.61443e-08
5.40855e-08
2.45701e-08
-7.99139e-08
-1.24623e-07
-8.39414e-08
3.3485e-08
8.43343e-08
4.58321e-08
3.85018e-08
-7.5242e-09
1.77071e-08
7.92485e-08
7.91916e-08
4.24223e-08
4.296e-08
1.73533e-08
-1.52221e-08
2.53633e-08
-6.86317e-08
-1.80767e-07
-1.35529e-07
-3.76117e-08
1.29226e-08
3.75199e-08
1.75076e-08
1.9637e-08
5.16198e-08
5.82742e-08
7.2316e-08
2.36366e-08
-2.29878e-08
1.64486e-08
4.12886e-08
1.18276e-08
-3.66423e-08
-1.1249e-07
-9.00643e-08
-3.57285e-08
-2.65871e-08
-7.23027e-09
1.94832e-08
2.27207e-08
2.64068e-08
)
;
    }
}


// ************************************************************************* //
