/*--------------------------------*- C++ -*----------------------------------*\
  =========                 |
  \\      /  F ield         | OpenFOAM: The Open Source CFD Toolbox
   \\    /   O peration     | Website:  https://openfoam.org
    \\  /    A nd           | Version:  6
     \\/     M anipulation  |
\*---------------------------------------------------------------------------*/
FoamFile
{
    version     2.0;
    format      ascii;
    class       volTensorField;
    location    "2.74";
    object      R.air;
}
// * * * * * * * * * * * * * * * * * * * * * * * * * * * * * * * * * * * * * //

dimensions      [0 2 -2 0 0 0 0];

internalField   nonuniform List<tensor> 
256
(
(8.80909e-05 -1.29297e-08 5.34282e-05 -1.29297e-08 0.000160836 5.39996e-05 5.34282e-05 5.39996e-05 0.0355517)
(0.000215124 -1.22757e-07 0.000111504 -1.22757e-07 8.38484e-05 2.11668e-05 0.000111504 2.11668e-05 0.172198)
(3.42493e-05 2.50745e-07 6.71506e-05 2.50745e-07 0.000153186 0.00010654 6.71506e-05 0.00010654 0.0528238)
(0.000175514 2.64832e-06 5.53227e-05 2.64832e-06 9.63043e-05 1.10072e-05 5.53227e-05 1.10072e-05 0.00612772)
(0.00160754 5.92839e-06 7.07296e-05 5.92839e-06 0.00517064 0.000108908 7.07296e-05 0.000108908 0.00260692)
(0.000218254 3.49787e-07 0.000113394 3.49787e-07 0.000296808 7.65912e-05 0.000113394 7.65912e-05 0.060906)
(0.000191422 7.25238e-06 3.892e-05 7.25238e-06 0.00176632 4.4739e-05 3.892e-05 4.4739e-05 0.000710229)
(0.000538227 4.84857e-06 -8.3708e-05 4.84857e-06 0.00185296 -0.000215459 -8.3708e-05 -0.000215459 0.00897386)
(1e-07 -6.67482e-09 5.65367e-07 -6.67482e-09 0.000132893 -1.36229e-05 5.65367e-07 -1.36229e-05 0.00538411)
(7.23275e-05 8.5912e-08 0.000104281 8.5912e-08 3.75004e-05 -8.45228e-06 0.000104281 -8.45228e-06 0.203758)
(6.05459e-05 3.19627e-07 4.16296e-05 3.19627e-07 0.000405294 2.48398e-06 4.16296e-05 2.48398e-06 0.00935939)
(0.00109689 -2.77644e-06 -3.18e-05 -2.77644e-06 0.000182837 -5.13031e-05 -3.18e-05 -5.13031e-05 0.00615227)
(5.49796e-05 -8.61621e-08 5.92932e-05 -8.61621e-08 0.000163785 -1.98772e-05 5.92932e-05 -1.98772e-05 0.0518403)
(0.000118149 -5.29359e-09 5.60948e-05 -5.29359e-09 1.13546e-05 -1.01143e-05 5.60948e-05 -1.01143e-05 0.0558788)
(0.00157441 3.10175e-06 0.000859933 3.10175e-06 0.000878929 6.17362e-05 0.000859933 6.17362e-05 0.14345)
(7.60682e-05 3.14851e-07 6.25075e-05 3.14851e-07 9.6624e-05 1.02357e-06 6.25075e-05 1.02357e-06 0.0102138)
(0.000923151 2.91986e-06 -0.000150281 2.91986e-06 0.00158351 0.000700233 -0.000150281 0.000700233 0.326558)
(5.28007e-05 6.65276e-08 5.81965e-06 6.65276e-08 3.12099e-05 7.48033e-05 5.81965e-06 7.48033e-05 0.241381)
(9.74042e-05 2.69365e-07 2.79355e-05 2.69365e-07 0.00130931 0.000647575 2.79355e-05 0.000647575 0.156358)
(0.00132588 7.87813e-07 1.7474e-05 7.87813e-07 0.000219459 0.000108339 1.7474e-05 0.000108339 0.0223666)
(0.00507961 -7.75529e-06 -0.000193563 -7.75529e-06 0.018235 0.000639315 -0.000193563 0.000639315 0.0754577)
(0.00044153 -1.13591e-07 -2.75747e-05 -1.13591e-07 0.00103852 0.000503632 -2.75747e-05 0.000503632 0.38042)
(0.000555193 1.42833e-07 1.78293e-05 1.42833e-07 0.00322337 0.000364154 1.78293e-05 0.000364154 0.0345353)
(0.000110196 8.38042e-07 -1.25555e-06 8.38042e-07 0.000254372 2.48348e-05 -1.25555e-06 2.48348e-05 0.000390586)
(0.000384369 -7.86481e-06 3.59938e-05 -7.86481e-06 0.00996336 -0.000413178 3.59938e-05 -0.000413178 0.0373588)
(0.000118989 -1.72698e-07 0.000109322 -1.72698e-07 0.000193216 -9.3017e-05 0.000109322 -9.3017e-05 0.4252)
(0.00191824 3.67041e-06 9.78357e-05 3.67041e-06 0.00917147 0.000607661 9.78357e-05 0.000607661 0.113673)
(0.00146275 -5.12499e-07 1.36656e-05 -5.12499e-07 0.00197238 8.32448e-05 1.36656e-05 8.32448e-05 0.00831272)
(0.000289106 -4.18985e-07 0.000156202 -4.18985e-07 0.00194557 0.000215474 0.000156202 0.000215474 0.079071)
(3.98525e-05 -5.11291e-08 1.15324e-05 -5.11291e-08 0.000104843 -2.55221e-05 1.15324e-05 -2.55221e-05 0.0597558)
(0.00129633 4.44363e-07 0.000134908 4.44363e-07 0.00532088 0.00162803 0.000134908 0.00162803 0.361858)
(0.00125447 3.44509e-06 0.000192808 3.44509e-06 0.00166948 0.000486647 0.000192808 0.000486647 0.0344138)
(0.000135423 6.82562e-08 -8.70947e-05 6.82562e-08 4.52178e-05 3.88988e-05 -8.70947e-05 3.88988e-05 0.0343115)
(5.00496e-05 4.42395e-09 -4.13748e-05 4.42395e-09 1e-07 5.32896e-06 -4.13748e-05 5.32896e-06 0.160644)
(0.000103066 1.13446e-09 -5.16809e-05 1.13446e-09 7.05672e-05 4.40542e-05 -5.16809e-05 4.40542e-05 0.0246359)
(0.000139573 -3.54972e-08 -3.18406e-05 -3.54972e-08 1.91772e-06 2.46607e-06 -3.18406e-05 2.46607e-06 0.00208735)
(8.79674e-05 6.11338e-08 -2.4322e-05 6.11338e-08 0.000339 1.06263e-05 -2.4322e-05 1.06263e-05 0.00152978)
(0.000284602 -6.95903e-08 -0.000146595 -6.95903e-08 0.000209458 0.000107967 -0.000146595 0.000107967 0.127158)
(6.21014e-06 -2.23105e-08 -2.68779e-06 -2.23105e-08 2.26171e-05 3.49789e-06 -2.68779e-06 3.49789e-06 0.000414488)
(1.3773e-05 -1.54086e-07 -5.28405e-06 -1.54086e-07 2.86765e-05 5.23001e-06 -5.28405e-06 5.23001e-06 0.000670053)
(0.00201153 -4.26433e-06 -0.000115121 -4.26433e-06 0.002447 -0.000176947 -0.000115121 -0.000176947 0.00878669)
(0.000207261 -4.88994e-07 -3.83145e-05 -4.88994e-07 0.000111336 -0.00020202 -3.83145e-05 -0.00020202 0.202836)
(3.30072e-05 -1.62435e-07 -2.11511e-05 -1.62435e-07 0.000265087 4.97403e-06 -2.11511e-05 4.97403e-06 0.0108523)
(3.79634e-05 -2.93668e-07 -7.17194e-06 -2.93668e-07 5.44809e-05 1.81678e-06 -7.17194e-06 1.81678e-06 0.000196689)
(0.000465275 1.80354e-06 -0.00013344 1.80354e-06 0.000445219 2.90886e-05 -0.00013344 2.90886e-05 0.0257618)
(1.95717e-05 9.45773e-08 -2.48523e-05 9.45773e-08 5.31933e-05 2.01278e-05 -2.48523e-05 2.01278e-05 0.0883108)
(0.000167912 -5.52506e-08 -0.000188785 -5.52506e-08 0.000252269 0.000114038 -0.000188785 0.000114038 0.0743683)
(0.00054687 -3.17238e-07 -0.000153972 -3.17238e-07 0.000143593 4.61972e-05 -0.000153972 4.61972e-05 0.0161781)
(0.000289856 7.37226e-08 -0.000167238 7.37226e-08 7.93577e-05 -1.92696e-06 -0.000167238 -1.92696e-06 0.00953031)
(0.000239997 1.63456e-08 -0.00030332 1.63456e-08 1e-07 -4.69565e-09 -0.00030332 -4.69565e-09 0.086953)
(9.38596e-05 2.02924e-07 -9.1192e-05 2.02924e-07 5.95757e-05 -1.6522e-05 -9.1192e-05 -1.6522e-05 0.00957885)
(2.4159e-05 1.15603e-09 -5.05865e-05 1.15603e-09 1e-07 -2.38611e-07 -5.05865e-05 -2.38611e-07 0.0124488)
(3.93165e-05 1.47737e-07 -3.20205e-05 1.47737e-07 7.20566e-05 1.6884e-06 -3.20205e-05 1.6884e-06 0.00276417)
(0.000224409 3.20894e-07 -0.000249494 3.20894e-07 8.35689e-05 5.28874e-06 -0.000249494 5.28874e-06 0.0389259)
(6.83541e-05 -4.33837e-09 -3.69417e-05 -4.33837e-09 1.91909e-05 8.21662e-07 -3.69417e-05 8.21662e-07 0.00316677)
(5.14204e-06 -7.75935e-09 -1.22e-05 -7.75935e-09 9.00898e-06 3.18063e-06 -1.22e-05 3.18063e-06 0.00438835)
(0.00854278 3.8763e-06 -0.000695131 3.8763e-06 0.00014799 -3.31285e-05 -0.000695131 -3.31285e-05 0.00926575)
(0.000345651 -1.27239e-08 -0.000287752 -1.27239e-08 1e-07 -1.04293e-06 -0.000287752 -1.04293e-06 0.0527664)
(1.11442e-05 -8.50144e-08 -2.97608e-05 -8.50144e-08 2.06731e-05 -9.82278e-07 -2.97608e-05 -9.82278e-07 0.0060074)
(0.00101401 -4.45218e-08 -0.000346124 -4.45218e-08 1e-07 -4.17909e-07 -0.000346124 -4.17909e-07 0.00884165)
(0.00289301 2.16679e-06 -0.000914815 2.16679e-06 0.000341955 -5.75253e-05 -0.000914815 -5.75253e-05 0.0335648)
(0.000277178 1.74433e-07 -0.000316601 1.74433e-07 2.57667e-05 -1.01774e-05 -0.000316601 -1.01774e-05 0.0658939)
(0.000875695 3.39635e-08 -0.00116638 3.39635e-08 4.77207e-05 -1.87131e-06 -0.00116638 -1.87131e-06 0.132405)
(0.00182403 5.70071e-07 -0.000902413 5.70071e-07 0.000254702 -3.76171e-05 -0.000902413 -3.76171e-05 0.0388371)
(0.000101232 2.73182e-08 -7.08419e-05 2.73182e-08 8.32366e-06 -8.7335e-07 -7.08419e-05 -8.7335e-07 0.00248719)
(6.2368e-05 1.27358e-07 -0.000199157 1.27358e-07 2.95137e-05 -2.37898e-05 -0.000199157 -2.37898e-05 0.0379309)
(1e-07 3.39746e-09 -2.68238e-06 3.39746e-09 1.61925e-05 -6.56497e-06 -2.68238e-06 -6.56497e-06 0.00467929)
(4.67875e-07 -3.37864e-09 -8.19338e-06 -3.37864e-09 6.42318e-06 1.48152e-06 -8.19338e-06 1.48152e-06 0.010261)
(5.55734e-05 1.92776e-08 -4.18145e-05 1.92776e-08 4.91843e-06 1.60266e-06 -4.18145e-05 1.60266e-06 0.00174392)
(1.58994e-05 2.49951e-08 -4.2758e-05 2.49951e-08 1.04518e-05 4.38149e-07 -4.2758e-05 4.38149e-07 0.00892657)
(1e-07 -9.85996e-10 -8.73477e-07 -9.85996e-10 8.23203e-07 4.22211e-07 -8.73477e-07 4.22211e-07 0.00106355)
(1e-07 -8.06568e-10 -1.21483e-06 -8.06568e-10 4.58861e-07 6.31834e-08 -1.21483e-06 6.31834e-08 0.00223921)
(0.000465659 -3.39063e-07 -0.000180113 -3.39063e-07 6.35351e-06 -5.80933e-07 -0.000180113 -5.80933e-07 0.00437505)
(1.71441e-05 -7.41687e-09 -6.63817e-05 -7.41687e-09 1e-07 3.93498e-07 -6.63817e-05 3.93498e-07 0.0203977)
(1e-07 -5.48037e-09 -1.79694e-06 -5.48037e-09 1.43664e-05 -3.55791e-06 -1.79694e-06 -3.55791e-06 0.00252679)
(7.19683e-07 -1.06676e-08 -2.57615e-06 -1.06676e-08 6.05234e-06 -4.97772e-06 -2.57615e-06 -4.97772e-06 0.00162893)
(0.00052622 -2.51503e-07 -0.000265729 -2.51503e-07 2.45787e-05 2.82247e-06 -0.000265729 2.82247e-06 0.00707071)
(0.000373433 -4.37716e-07 -0.000743929 -4.37716e-07 3.43804e-05 7.92599e-06 -0.000743929 7.92599e-06 0.101059)
(0.000123005 -4.32742e-08 -0.000389768 -4.32742e-08 1.93223e-05 -1.78359e-05 -0.000389768 -1.78359e-05 0.0549004)
(1.09347e-05 2.73453e-08 -4.76521e-05 2.73453e-08 1.12723e-05 -1.04242e-05 -4.76521e-05 -1.04242e-05 0.0117909)
(0.00069116 -1.56291e-07 -0.000327827 -1.56291e-07 6.26586e-06 4.60796e-08 -0.000327827 4.60796e-08 0.00649636)
(0.000297817 -1.21907e-07 -0.000521961 -1.21907e-07 5.45802e-06 -4.86359e-06 -0.000521961 -4.86359e-06 0.0395235)
(1e-07 -2.73076e-09 -6.89403e-06 -2.73076e-09 5.07253e-06 -4.61646e-06 -6.89403e-06 -4.61646e-06 0.0199144)
(0.000268802 -6.72545e-08 -0.000468255 -6.72545e-08 1.04006e-06 2.62743e-06 -0.000468255 2.62743e-06 0.0708383)
(0.000240456 -3.41206e-07 -0.000121526 -3.41206e-07 3.44901e-06 2.43617e-06 -0.000121526 2.43617e-06 0.00419403)
(7.78281e-05 -6.16413e-08 -0.000109823 -6.16413e-08 1.01789e-05 -1.12771e-06 -0.000109823 -1.12771e-06 0.0119658)
(1e-07 -3.42973e-09 -2.44727e-06 -3.42973e-09 2.12137e-06 1.15802e-06 -2.44727e-06 1.15802e-06 0.00493369)
(5.7566e-07 -2.07993e-08 -7.83486e-06 -2.07993e-08 7.16101e-05 3.60735e-05 -7.83486e-06 3.60735e-05 0.0145281)
(0.000292275 -1.0019e-07 -0.000140981 -1.0019e-07 3.56566e-07 1.07297e-07 -0.000140981 1.07297e-07 0.00793483)
(1.14534e-05 -6.34842e-08 -3.47189e-05 -6.34842e-08 1.45703e-05 -2.98305e-06 -3.47189e-05 -2.98305e-06 0.0149849)
(1.20254e-06 -2.34062e-08 -7.24209e-06 -2.34062e-08 2.21185e-05 -2.83699e-06 -7.24209e-06 -2.83699e-06 0.00544236)
(1e-07 -2.05053e-08 -3.28456e-06 -2.05053e-08 0.000103574 2.8263e-05 -3.28456e-06 2.8263e-05 0.0212751)
(0.00104059 -6.68475e-07 -0.000405694 -6.68475e-07 6.8251e-06 2.82385e-06 -0.000405694 2.82385e-06 0.00668534)
(0.000561713 -7.94818e-07 -0.000698177 -7.94818e-07 2.07159e-05 -1.2622e-07 -0.000698177 -1.2622e-07 0.0559185)
(5.02964e-07 -1.58329e-08 -2.18195e-05 -1.58329e-08 4.23445e-05 -1.1755e-05 -2.18195e-05 -1.1755e-05 0.0319933)
(1.11348e-07 -4.06093e-10 -1.0381e-05 -4.06093e-10 1e-07 -6.91514e-07 -1.0381e-05 -6.91514e-07 0.0464322)
(0.000918098 -3.50937e-07 -0.000437942 -3.50937e-07 9.35802e-07 2.9652e-08 -0.000437942 2.9652e-08 0.0231736)
(0.000121379 -2.23814e-07 -0.000236278 -2.23814e-07 3.87874e-06 -1.39078e-05 -0.000236278 -1.39078e-05 0.0267585)
(4.01291e-07 -2.53531e-10 -1.22756e-05 -2.53531e-10 1e-07 -1.0654e-06 -1.22756e-05 -1.0654e-06 0.0426355)
(0.00214788 -2.16952e-06 -0.00155994 -2.16952e-06 0.00013517 8.76125e-05 -0.00155994 8.76125e-05 0.171257)
(0.000289731 -1.84585e-06 -0.000156134 -1.84585e-06 7.71635e-05 9.24585e-06 -0.000156134 9.24585e-06 0.00895441)
(0.000107779 -1.12137e-07 -6.26775e-05 -1.12137e-07 7.56454e-06 -1.25047e-05 -6.26775e-05 -1.25047e-05 0.00648239)
(1e-07 -3.89684e-08 -1.28076e-06 -3.89684e-08 9.15838e-05 -1.5893e-05 -1.28076e-06 -1.5893e-05 0.00977423)
(0.000115177 -1.51485e-06 -0.000169714 -1.51485e-06 0.000664512 0.000108642 -0.000169714 0.000108642 0.0448238)
(1.85756e-06 -4.12022e-08 -4.23868e-06 -4.12022e-08 3.07457e-05 -1.42719e-06 -4.23868e-06 -1.42719e-06 0.00279204)
(0.000309938 -1.65799e-06 -6.92657e-05 -1.65799e-06 0.000426341 -0.000127342 -6.92657e-05 -0.000127342 0.0135737)
(1e-07 -5.06497e-09 -2.30673e-07 -5.06497e-09 1.9952e-05 -7.16683e-06 -2.30673e-07 -7.16683e-06 0.00151099)
(1e-07 -1.09618e-08 -7.9463e-07 -1.09618e-08 7.02514e-05 1.0939e-06 -7.9463e-07 1.0939e-06 0.00726663)
(0.000624931 -3.07873e-07 -0.000280495 -3.07873e-07 1.27181e-06 -1.91795e-06 -0.000280495 -1.91795e-06 0.00917457)
(0.000422186 -6.06253e-08 -0.000344254 -6.06253e-08 1e-07 -1.41294e-06 -0.000344254 -1.41294e-06 0.0206574)
(1e-07 3.9946e-10 -4.9252e-06 3.9946e-10 1.02618e-06 -5.04613e-06 -4.9252e-06 -5.04613e-06 0.0192167)
(0.000158022 -8.28593e-09 -0.000261801 -8.28593e-09 1e-07 8.99856e-07 -0.000261801 8.99856e-07 0.0521263)
(0.000489736 -6.53776e-07 -0.00039522 -6.53776e-07 2.4815e-06 -9.8499e-06 -0.00039522 -9.8499e-06 0.0364779)
(5.07367e-06 -4.75793e-08 -2.05377e-05 -4.75793e-08 2.26627e-05 -0.000111697 -2.05377e-05 -0.000111697 0.0483088)
(5.53169e-06 1.56342e-08 -3.09201e-05 1.56342e-08 2.58382e-06 -1.71871e-05 -3.09201e-05 -1.71871e-05 0.26528)
(0.000896818 -3.48635e-07 -0.00037321 -3.48635e-07 2.08428e-05 1.05357e-05 -0.00037321 1.05357e-05 0.107509)
(0.000421247 1.998e-06 -0.000487752 1.998e-06 0.000172348 -0.000176275 -0.000487752 -0.000176275 0.0315492)
(0.000114995 -3.44952e-07 -2.53423e-05 -3.44952e-07 0.00011969 -0.000196984 -2.53423e-05 -0.000196984 0.0239755)
(4.93293e-06 -2.61922e-07 3.37469e-06 -2.61922e-07 7.09489e-05 -0.000110019 3.37469e-06 -0.000110019 0.0265111)
(0.00014108 -9.72411e-07 -9.40414e-05 -9.72411e-07 0.000330114 -0.000107159 -9.40414e-05 -0.000107159 0.0293198)
(1.60395e-05 -6.8494e-08 -2.08891e-05 -6.8494e-08 0.000289521 -5.31551e-05 -2.08891e-05 -5.31551e-05 0.00581491)
(0.0247163 -3.36265e-05 0.00164366 -3.36265e-05 0.0294668 -0.00691997 0.00164366 -0.00691997 0.59183)
(1e-07 -9.01216e-09 1.16947e-06 -9.01216e-09 2.45546e-05 -1.16846e-05 1.16947e-06 -1.16846e-05 0.00378243)
(5.20684e-06 -3.37309e-08 1.12151e-07 -3.37309e-08 0.000103749 -3.43875e-05 1.12151e-07 -3.43875e-05 0.00828327)
(2.05606e-06 -9.48867e-09 -1.05766e-05 -9.48867e-09 1e-07 6.41179e-07 -1.05766e-05 6.41179e-07 0.00439191)
(1e-07 -5.92067e-10 -6.97511e-07 -5.92067e-10 1e-07 -6.18104e-07 -6.97511e-07 -6.18104e-07 0.0101294)
(7.73924e-07 3.68488e-08 4.12459e-06 3.68488e-08 9.66859e-06 1.13109e-05 4.12459e-06 1.13109e-05 0.0224948)
(2.17196e-05 3.45157e-08 -1.26847e-05 3.45157e-08 2.52226e-05 1.34505e-05 -1.26847e-05 1.34505e-05 0.0522012)
(1e-07 -2.17434e-08 -4.11997e-06 -2.17434e-08 4.13845e-05 -9.18573e-05 -4.11997e-06 -9.18573e-05 0.0306698)
(4.04333e-06 -4.39878e-08 1.08668e-05 -4.39878e-08 0.000123799 -0.000177569 1.08668e-05 -0.000177569 0.0217326)
(1e-07 -2.03961e-09 7.30805e-06 -2.03961e-09 3.77383e-06 -3.83697e-05 7.30805e-06 -3.83697e-05 0.0957029)
(3.51995e-05 -1.94436e-08 1.44454e-05 -1.94436e-08 1e-07 -1.83173e-06 1.44454e-05 -1.83173e-06 0.0622403)
(1e-07 -5.70443e-08 -1.68087e-06 -5.70443e-08 0.000213843 -0.000214394 -1.68087e-06 -0.000214394 0.0340175)
(0.000242669 -1.75855e-06 0.000234588 -1.75855e-06 0.00152912 -0.00199569 0.000234588 -0.00199569 0.691895)
(1e-07 -1.0467e-08 1.6658e-06 -1.0467e-08 1.61944e-05 -2.55589e-05 1.6658e-06 -2.55589e-05 0.0150427)
(2.93329e-05 -3.13951e-07 6.96765e-06 -3.13951e-07 1.06334e-05 -7.54111e-05 6.96765e-06 -7.54111e-05 0.0612282)
(0.00285622 -6.76727e-05 0.000301404 -6.76727e-05 0.0801531 -0.0133754 0.000301404 -0.0133754 0.848678)
(0.0951961 -0.000118605 0.00521288 -0.000118605 0.0868611 -0.0158245 0.00521288 -0.0158245 1.66342)
(1e-07 -5.36246e-08 9.08607e-06 -5.36246e-08 0.0103913 -0.00328156 9.08607e-06 -0.00328156 0.581267)
(1.82796e-05 -2.35121e-07 9.4889e-06 -2.35121e-07 7.16662e-05 -3.29959e-05 9.4889e-06 -3.29959e-05 0.00754274)
(1e-07 8.62124e-09 1.04702e-07 8.62124e-09 0.000136423 -1.41156e-05 1.04702e-07 -1.41156e-05 0.00292461)
(0.00370292 -1.81725e-07 0.000799933 -1.81725e-07 0.00307946 -0.00102232 0.000799933 -0.00102232 0.277647)
(5.1986e-07 -1.08718e-08 4.06436e-06 -1.08718e-08 4.94802e-05 -1.12113e-05 4.06436e-06 -1.12113e-05 0.00714545)
(4.01503e-06 -1.14697e-09 1.45755e-05 -1.14697e-09 3.07631e-07 -5.08315e-07 1.45755e-05 -5.08315e-07 0.0149441)
(4.27701e-06 -3.88481e-08 4.36384e-06 -3.88481e-08 1.27746e-05 -1.12918e-05 4.36384e-06 -1.12918e-05 0.00959218)
(0.000200967 -7.45078e-08 0.0002554 -7.45078e-08 0.0054201 -0.00240525 0.0002554 -0.00240525 0.569706)
(1e-07 -1.58214e-10 1.97963e-06 -1.58214e-10 5.098e-07 -1.98595e-06 1.97963e-06 -1.98595e-06 0.0238864)
(4.50474e-06 -5.14901e-09 1.32873e-05 -5.14901e-09 1e-07 -1.8204e-06 1.32873e-05 -1.8204e-06 0.0297697)
(0.00049513 -1.36575e-06 0.000258134 -1.36575e-06 0.000262033 -0.000717187 0.000258134 -0.000717187 0.785705)
(1e-07 -1.11539e-08 8.15368e-06 -1.11539e-08 0.0102173 -0.00708162 8.15368e-06 -0.00708162 1.81056)
(0.00143561 -3.50098e-06 0.00130608 -3.50098e-06 0.00260464 -0.00195621 0.00130608 -0.00195621 0.853856)
(3.28417e-05 -1.02575e-07 2.10066e-05 -1.02575e-07 1.20864e-05 -2.115e-05 2.10066e-05 -2.115e-05 0.0270663)
(0.00108287 -2.77967e-05 0.000221817 -2.77967e-05 0.0153998 -0.00810229 0.000221817 -0.00810229 1.25313)
(0.0356983 -7.87245e-05 0.00511076 -7.87245e-05 0.0387702 -0.0109613 0.00511076 -0.0109613 1.68378)
(0.000292244 2.53084e-06 0.00087995 2.53084e-06 0.010854 -0.00505291 0.00087995 -0.00505291 1.0528)
(0.00285645 -3.49974e-06 0.00116088 -3.49974e-06 0.00325132 -0.00312668 0.00116088 -0.00312668 0.97314)
(0.00189432 -2.87543e-05 0.000375659 -2.87543e-05 0.0116675 -0.00316162 0.000375659 -0.00316162 0.474998)
(0.00152562 -2.52026e-06 0.000341576 -2.52026e-06 0.0032698 -0.00036352 0.000341576 -0.00036352 0.177536)
(1e-07 2.31194e-08 5.31143e-06 2.31194e-08 0.000323563 -0.000192482 5.31143e-06 -0.000192482 0.185894)
(1.7568e-05 1.01871e-07 7.39892e-06 1.01871e-07 8.59867e-05 -4.4141e-05 7.39892e-06 -4.4141e-05 0.0173263)
(2.68272e-06 -2.01479e-08 1.40762e-05 -2.01479e-08 8.23579e-07 -2.4923e-06 1.40762e-05 -2.4923e-06 0.0277576)
(1.96508e-05 1.08349e-08 -4.6045e-07 1.08349e-08 0.000352203 0.000113722 -4.6045e-07 0.000113722 0.0661092)
(7.09892e-06 1.41128e-07 1.35714e-06 1.41128e-07 1.67477e-05 5.65071e-05 1.35714e-06 5.65071e-05 0.0562165)
(9.44619e-06 -1.84441e-09 -9.16298e-06 -1.84441e-09 3.88145e-06 -2.28822e-05 -9.16298e-06 -2.28822e-05 0.118871)
(1.86987e-05 -3.86945e-09 -2.90282e-06 -3.86945e-09 1e-07 -3.7157e-07 -2.90282e-06 -3.7157e-07 0.033775)
(1e-07 -1.68583e-09 8.11881e-07 -1.68583e-09 0.000212581 -0.000178867 8.11881e-07 -0.000178867 0.260068)
(2.00368e-05 8.84222e-08 -7.25338e-06 8.84222e-08 5.72834e-05 1.52139e-05 -7.25338e-06 1.52139e-05 0.0295611)
(6.90048e-05 3.31925e-09 -2.89656e-06 3.31925e-09 8.84269e-06 2.04093e-05 -2.89656e-06 2.04093e-05 0.0876122)
(0.000107381 -7.37992e-07 1.89696e-05 -7.37992e-07 0.000813876 -0.000509397 1.89696e-05 -0.000509397 0.269034)
(0.00101059 -2.07057e-06 0.000278142 -2.07057e-06 0.00254352 -0.00173412 0.000278142 -0.00173412 0.413833)
(0.000198863 2.45336e-06 2.19334e-05 2.45336e-06 0.00429124 -0.000856748 2.19334e-05 -0.000856748 0.246352)
(1.48219e-05 1.10706e-07 -2.04693e-05 1.10706e-07 5.85682e-05 -1.07604e-05 -2.04693e-05 -1.07604e-05 0.0500324)
(3.76396e-05 -6.72937e-07 -7.4095e-06 -6.72937e-07 0.000231028 -1.43713e-05 -7.4095e-06 -1.43713e-05 0.0276605)
(0.000237353 -1.88943e-06 3.47078e-05 -1.88943e-06 0.00443684 -0.000584788 3.47078e-05 -0.000584788 0.0755968)
(1.89405e-05 1.69808e-06 -6.89938e-06 1.69808e-06 0.000946917 0.000177884 -6.89938e-06 0.000177884 0.0226371)
(1.58497e-05 4.5721e-07 -2.89802e-05 4.5721e-07 0.000166861 -8.74088e-05 -2.89802e-05 -8.74088e-05 0.0796609)
(1.59396e-05 -9.00244e-08 4.28684e-06 -9.00244e-08 1.16792e-05 1.20029e-05 4.28684e-06 1.20029e-05 0.0718829)
(4.77173e-06 1.45488e-08 -1.82113e-05 1.45488e-08 7.86854e-05 0.000156182 -1.82113e-05 0.000156182 0.105819)
(8.21724e-06 3.19958e-08 -2.14424e-05 3.19958e-08 2.90684e-06 2.52165e-05 -2.14424e-05 2.52165e-05 0.0873993)
(2.7363e-05 1.79997e-08 -2.5003e-05 1.79997e-08 2.27603e-05 5.93973e-05 -2.5003e-05 5.93973e-05 0.127364)
(0.000114131 -9.56403e-08 -4.77057e-05 -9.56403e-08 1.35626e-05 2.29351e-06 -4.77057e-05 2.29351e-06 0.033211)
(3.65411e-05 -2.29924e-09 -5.17055e-05 -2.29924e-09 1e-07 2.79989e-06 -5.17055e-05 2.79989e-06 0.0737822)
(8.09337e-06 4.02402e-09 -1.87233e-05 4.02402e-09 1e-07 1.525e-06 -1.87233e-05 1.525e-06 0.0313521)
(0.000151884 1.05814e-07 -0.000147127 1.05814e-07 1.47603e-05 4.75882e-06 -0.000147127 4.75882e-06 0.104253)
(0.000250373 4.60855e-07 -2.66519e-05 4.60855e-07 0.000106314 5.97891e-05 -2.66519e-05 5.97891e-05 0.0891122)
(0.000125267 3.86031e-07 -4.93567e-05 3.86031e-07 0.000867776 -0.000157206 -4.93567e-05 -0.000157206 0.203723)
(1.39039e-06 4.83992e-08 -2.03566e-05 4.83992e-08 0.000625344 0.000310442 -2.03566e-05 0.000310442 0.0721863)
(2.67403e-05 1.89239e-07 -9.40615e-05 1.89239e-07 6.82697e-05 4.57802e-05 -9.40615e-05 4.57802e-05 0.0918889)
(4.6714e-05 3.45918e-07 -1.21825e-05 3.45918e-07 0.000238416 0.000104886 -1.21825e-05 0.000104886 0.0345149)
(3.81967e-05 7.84816e-07 -4.67981e-05 7.84816e-07 0.00152586 6.92455e-05 -4.67981e-05 6.92455e-05 0.0279784)
(6.24786e-07 3.52842e-08 -5.04418e-06 3.52842e-08 0.000344597 0.000169437 -5.04418e-06 0.000169437 0.0195596)
(7.78697e-06 1.61012e-07 -3.2348e-05 1.61012e-07 8.72236e-05 3.45723e-05 -3.2348e-05 3.45723e-05 0.0734367)
(1.62122e-05 -1.35939e-07 4.00344e-05 -1.35939e-07 5.29512e-05 5.3378e-05 4.00344e-05 5.3378e-05 0.0328644)
(1.6544e-05 -4.87685e-09 1.6776e-05 -4.87685e-09 2.74227e-07 4.07507e-06 1.6776e-05 4.07507e-06 0.0621452)
(1e-07 1.40206e-09 -1.43923e-06 1.40206e-09 5.04771e-06 1.67878e-05 -1.43923e-06 1.67878e-05 0.0662433)
(2.41801e-05 -3.59636e-08 -3.84873e-06 -3.59636e-08 2.21251e-05 2.35402e-05 -3.84873e-06 2.35402e-05 0.0833784)
(7.67391e-05 -1.26967e-07 -2.00787e-05 -1.26967e-07 3.03974e-05 -9.51487e-07 -2.00787e-05 -9.51487e-07 0.0152498)
(4.497e-05 -1.90071e-08 -3.29302e-05 -1.90071e-08 1.95492e-06 4.97123e-06 -3.29302e-05 4.97123e-06 0.0353563)
(1e-07 2.13365e-09 -1.07797e-06 2.13365e-09 3.86496e-06 3.86821e-06 -1.07797e-06 3.86821e-06 0.0099738)
(7.80317e-05 6.23192e-08 -9.85759e-06 6.23192e-08 1.38835e-05 4.39079e-06 -9.85759e-06 4.39079e-06 0.0263882)
(9.08086e-05 1.5445e-07 -5.1758e-06 1.5445e-07 5.52933e-05 4.67808e-05 -5.1758e-06 4.67808e-05 0.0442888)
(6.90752e-05 1.91141e-07 -7.85707e-06 1.91141e-07 7.45316e-05 0.000119493 -7.85707e-06 0.000119493 0.0504662)
(1e-07 3.63791e-09 -1.53776e-06 3.63791e-09 0.000127608 0.00018089 -1.53776e-06 0.00018089 0.0533)
(0.000140085 4.21726e-07 -4.94168e-05 4.21726e-07 4.96917e-05 -9.75187e-06 -4.94168e-05 -9.75187e-06 0.107596)
(3.93655e-06 7.81155e-08 1.47756e-06 7.81155e-08 6.1752e-05 3.90969e-05 1.47756e-06 3.90969e-05 0.010181)
(5.79126e-06 1.0404e-07 4.02197e-06 1.0404e-07 0.000205401 0.000204825 4.02197e-06 0.000204825 0.0363609)
(1e-07 6.44489e-09 -1.33167e-06 6.44489e-09 5.96491e-05 0.000102848 -1.33167e-06 0.000102848 0.0334872)
(1.38591e-05 1.11765e-08 -1.74117e-05 1.11765e-08 1.94348e-05 1.18426e-05 -1.74117e-05 1.18426e-05 0.0611215)
(3.4392e-05 -1.9627e-07 -1.30767e-05 -1.9627e-07 2.08246e-05 2.56911e-05 -1.30767e-05 2.56911e-05 0.0355511)
(2.40974e-05 -1.14401e-07 1.3252e-05 -1.14401e-07 2.90127e-05 4.99772e-05 1.3252e-05 4.99772e-05 0.0614419)
(2.21723e-05 -1.62785e-08 6.54581e-06 -1.62785e-08 1.60943e-05 -3.13698e-06 6.54581e-06 -3.13698e-06 0.0903214)
(3.66956e-05 -7.56893e-08 1.61427e-05 -7.56893e-08 3.46976e-05 9.81014e-06 1.61427e-05 9.81014e-06 0.106549)
(2.6353e-05 5.00728e-08 1.36966e-05 5.00728e-08 6.17136e-05 8.32804e-06 1.36966e-05 8.32804e-06 0.0121834)
(2.66729e-05 4.04359e-09 -8.07383e-07 4.04359e-09 1.10733e-05 7.19997e-06 -8.07383e-07 7.19997e-06 0.0154796)
(1.11936e-05 4.47004e-09 -2.04403e-06 4.47004e-09 2.8492e-05 2.72264e-06 -2.04403e-06 2.72264e-06 0.00690857)
(0.000150507 -1.7867e-08 7.63408e-06 -1.7867e-08 4.76895e-05 -8.1098e-06 7.63408e-06 -8.1098e-06 0.0238386)
(7.11388e-06 6.7697e-08 2.19345e-06 6.7697e-08 2.97565e-05 5.26184e-07 2.19345e-06 5.26184e-07 0.0176056)
(2.06188e-05 1.43808e-08 6.69121e-06 1.43808e-08 4.02771e-06 1.18751e-05 6.69121e-06 1.18751e-05 0.0454635)
(8.40156e-05 2.08633e-07 1.9097e-05 2.08633e-07 3.96525e-05 1.94706e-05 1.9097e-05 1.94706e-05 0.0563633)
(0.000148624 4.78354e-07 5.05124e-05 4.78354e-07 0.000128823 -6.64392e-05 5.05124e-05 -6.64392e-05 0.093449)
(4.29675e-06 -2.71582e-09 -2.63006e-05 -2.71582e-09 1e-07 4.95155e-07 -2.63006e-05 4.95155e-07 0.0191317)
(0.000296486 -1.81121e-07 -2.38169e-05 -1.81121e-07 0.000859935 0.000431243 -2.38169e-05 0.000431243 1.75318)
(2.20946e-05 1.0372e-07 4.76506e-05 1.0372e-07 1.37733e-05 2.37365e-05 4.76506e-05 2.37365e-05 0.11013)
(3.75804e-06 5.08175e-09 -1.14644e-05 5.08175e-09 1.05624e-05 2.60745e-06 -1.14644e-05 2.60745e-06 0.0987547)
(3.46453e-05 -2.68602e-07 -2.69082e-05 -2.68602e-07 7.46922e-05 3.49293e-05 -2.69082e-05 3.49293e-05 0.0439196)
(0.000696895 -2.88942e-07 0.000338303 -2.88942e-07 4.12848e-05 5.74006e-05 0.000338303 5.74006e-05 0.425148)
(2.38432e-06 -2.9201e-08 1.4006e-05 -2.9201e-08 5.63013e-05 1.21697e-05 1.4006e-05 1.21697e-05 0.0278939)
(3.17408e-05 -1.62471e-07 -8.9408e-06 -1.62471e-07 1.73336e-05 5.79813e-06 -8.9408e-06 5.79813e-06 0.0198141)
(3.09431e-05 1.37497e-07 -1.29132e-05 1.37497e-07 0.000161865 1.57369e-06 -1.29132e-05 1.57369e-06 0.0052322)
(0.000172655 2.7407e-08 8.69412e-05 2.7407e-08 5.76005e-05 2.41229e-05 8.69412e-05 2.41229e-05 0.0218142)
(5.38818e-05 5.9422e-08 1.34615e-05 5.9422e-08 8.27807e-05 3.18745e-06 1.34615e-05 3.18745e-06 0.00163258)
(0.000131543 6.63981e-08 -1.69813e-06 6.63981e-08 7.99038e-05 -2.04707e-05 -1.69813e-06 -2.04707e-05 0.00962046)
(1e-07 7.16244e-10 -1.21753e-06 7.16244e-10 1e-07 -1.77288e-07 -1.21753e-06 -1.77288e-07 0.00883763)
(0.000380188 7.44346e-09 0.00019196 7.44346e-09 1e-07 1.53599e-06 0.00019196 1.53599e-06 0.438298)
(7.06356e-05 1.10842e-07 2.49258e-05 1.10842e-07 5.79395e-06 2.11375e-07 2.49258e-05 2.11375e-07 0.00554541)
(8.22446e-05 2.59689e-08 -1.10589e-05 2.59689e-08 1e-07 -2.15923e-06 -1.10589e-05 -2.15923e-06 0.0154641)
(1e-07 -9.37125e-10 -5.96961e-06 -9.37125e-10 3.7557e-05 1.0066e-05 -5.96961e-06 1.0066e-05 0.389055)
(0.00129942 -2.25932e-07 0.000203923 -2.25932e-07 0.000336767 0.000169933 0.000203923 0.000169933 4.16689)
(4.18073e-07 1.41412e-08 9.69979e-06 1.41412e-08 0.000175494 2.86646e-05 9.69979e-06 2.86646e-05 0.222124)
(4.6816e-06 3.54391e-08 -1.63869e-05 3.54391e-08 1.98725e-05 -1.16277e-05 -1.63869e-05 -1.16277e-05 0.0278092)
(0.000202596 1.57325e-07 5.26619e-05 1.57325e-07 0.000246636 -1.33573e-05 5.26619e-05 -1.33573e-05 0.0993032)
(0.00121372 2.37009e-07 0.000646848 2.37009e-07 5.60699e-05 -1.1069e-06 0.000646848 -1.1069e-06 0.39085)
(6.96511e-05 2.9374e-07 0.000153287 2.9374e-07 0.00010464 1.2883e-05 0.000153287 1.2883e-05 0.0771421)
(0.000357295 1.85493e-06 0.000173894 1.85493e-06 0.00108676 -0.000104991 0.000173894 -0.000104991 0.0421462)
(0.000918284 4.74012e-06 9.89966e-05 4.74012e-06 0.00366405 9.45211e-05 9.89966e-05 9.45211e-05 0.0272757)
(0.000849099 8.15864e-07 0.000453699 8.15864e-07 0.000340715 7.63371e-05 0.000453699 7.63371e-05 0.117974)
(0.000166723 9.75687e-07 8.88664e-05 9.75687e-07 0.000640439 2.19287e-05 8.88664e-05 2.19287e-05 0.00818175)
(0.00257521 1.10586e-05 -0.000142513 1.10586e-05 0.00528341 -0.00106612 -0.000142513 -0.00106612 0.0380301)
(1e-07 9.54153e-09 -2.01961e-08 9.54153e-09 0.000109581 -1.5523e-06 -2.01961e-08 -1.5523e-06 0.0385414)
(0.000320753 2.04434e-07 0.000365648 2.04434e-07 0.000143869 4.60371e-05 0.000365648 4.60371e-05 0.497776)
(0.000105429 2.21458e-07 8.07578e-05 2.21458e-07 0.000298251 -6.97456e-06 8.07578e-05 -6.97456e-06 0.0189672)
(0.000134737 3.56965e-07 1.23194e-05 3.56965e-07 9.83972e-05 -1.67764e-05 1.23194e-05 -1.67764e-05 0.00556357)
(3.30303e-07 7.02215e-09 2.98473e-08 7.02215e-09 0.000100285 -2.93218e-05 2.98473e-08 -2.93218e-05 0.20698)
(0.000564527 1.73266e-07 0.000448927 1.73266e-07 5.04117e-05 -2.16073e-05 0.000448927 -2.16073e-05 0.72721)
(0.000307974 1.09314e-06 0.000454658 1.09314e-06 0.000444336 5.24429e-06 0.000454658 5.24429e-06 0.168747)
(0.000250521 8.67807e-07 0.000127861 8.67807e-07 0.000595233 -6.18729e-05 0.000127861 -6.18729e-05 0.0668234)
)
;

boundaryField
{
    bottom
    {
        type            cyclic;
    }
    top
    {
        type            cyclic;
    }
    lr1
    {
        type            cyclic;
    }
    lr2
    {
        type            cyclic;
    }
    vh1
    {
        type            cyclic;
    }
    vh2
    {
        type            cyclic;
    }
}


// ************************************************************************* //
