/*--------------------------------*- C++ -*----------------------------------*\
  =========                 |
  \\      /  F ield         | OpenFOAM: The Open Source CFD Toolbox
   \\    /   O peration     | Website:  https://openfoam.org
    \\  /    A nd           | Version:  6
     \\/     M anipulation  |
\*---------------------------------------------------------------------------*/
FoamFile
{
    version     2.0;
    format      ascii;
    class       volTensorField;
    location    "2.74";
    object      R.particles;
}
// * * * * * * * * * * * * * * * * * * * * * * * * * * * * * * * * * * * * * //

dimensions      [0 2 -2 0 0 0 0];

internalField   nonuniform List<tensor> 
256
(
(5.15637e-05 -1.38699e-07 8.78258e-06 -1.38699e-07 5.81523e-05 -9.57116e-06 8.78258e-06 -9.57116e-06 0.0118351)
(5.48829e-05 -1.32709e-08 4.5534e-07 -1.32709e-08 2.00475e-06 1.01887e-07 4.5534e-07 1.01887e-07 0.0182742)
(4.37931e-05 1.33071e-07 -3.02012e-06 1.33071e-07 0.000131581 -1.69734e-06 -3.02012e-06 -1.69734e-06 0.0140306)
(0.000162447 5.70576e-07 -6.8244e-06 5.70576e-07 0.000117857 -1.41898e-05 -6.8244e-06 -1.41898e-05 0.00433009)
(0.000519923 -3.13819e-06 -4.19665e-05 -3.13819e-06 0.00236306 -0.000100294 -4.19665e-05 -0.000100294 0.00231348)
(9.05691e-05 1.09307e-08 -1.3512e-05 1.09307e-08 0.000191443 -2.27521e-06 -1.3512e-05 -2.27521e-06 0.0130902)
(9.7321e-05 9.23979e-08 -4.72191e-06 9.23979e-08 0.000704787 -5.7109e-05 -4.72191e-06 -5.7109e-05 0.00126961)
(0.000191596 -1.2789e-06 -1.24366e-05 -1.2789e-06 0.00121104 -8.28614e-05 -1.24366e-05 -8.28614e-05 0.00447107)
(2.16143e-06 -2.84103e-09 -1.38149e-07 -2.84103e-09 0.000196482 -1.99002e-05 -1.38149e-07 -1.99002e-05 0.00382557)
(1.27889e-05 2.23126e-08 -5.36903e-07 2.23126e-08 1.30146e-05 -3.4019e-06 -5.36903e-07 -3.4019e-06 0.0180431)
(9.85474e-05 -2.52114e-07 -1.56865e-05 -2.52114e-07 0.000324033 -5.70651e-05 -1.56865e-05 -5.70651e-05 0.0049123)
(0.000260603 -4.82098e-07 -2.24489e-05 -4.82098e-07 9.29973e-05 -2.05265e-05 -2.24489e-05 -2.05265e-05 0.00279869)
(9.95788e-06 -2.65902e-08 7.60741e-06 -2.65902e-08 7.74267e-05 -2.01288e-05 7.60741e-06 -2.01288e-05 0.0195309)
(3.02236e-05 6.69894e-10 9.08717e-06 6.69894e-10 8.59965e-06 -5.12572e-06 9.08717e-06 -5.12572e-06 0.0348749)
(0.000259216 3.46454e-07 3.70456e-05 3.46454e-07 0.000373483 -4.92043e-05 3.70456e-05 -4.92043e-05 0.0247652)
(0.000105588 1.20607e-07 3.02413e-06 1.20607e-07 5.94569e-05 -2.16014e-05 3.02413e-06 -2.16014e-05 0.00439422)
(0.000116099 -5.66304e-08 3.67482e-06 -5.66304e-08 0.000187279 2.10454e-05 3.67482e-06 2.10454e-05 0.0316427)
(3.35549e-05 -9.82507e-10 -9.16781e-06 -9.82507e-10 1e-07 5.51634e-07 -9.16781e-06 5.51634e-07 0.0270507)
(6.57664e-05 -1.64589e-07 1.84586e-06 -1.64589e-07 0.000309287 -1.02719e-05 1.84586e-06 -1.02719e-05 0.0242615)
(0.000509987 -1.00815e-08 1.84602e-05 -1.00815e-08 0.000110162 -1.58398e-05 1.84602e-05 -1.58398e-05 0.00911968)
(0.000543774 -1.33337e-06 -6.71626e-06 -1.33337e-06 0.00228549 -4.98459e-06 -6.71626e-06 -4.98459e-06 0.00898318)
(6.61185e-05 -5.81539e-08 -4.51012e-06 -5.81539e-08 0.000178011 3.48838e-05 -4.51012e-06 3.48838e-05 0.0269688)
(6.71234e-05 -2.30343e-07 1.18988e-06 -2.30343e-07 0.000416691 -1.24304e-05 1.18988e-06 -1.24304e-05 0.00493794)
(0.000152003 -8.48402e-07 6.60143e-06 -8.48402e-07 0.00070496 -3.81442e-05 6.60143e-06 -3.81442e-05 0.00190692)
(8.70314e-05 5.02275e-08 -1.80752e-06 5.02275e-08 0.000957097 4.34649e-05 -1.80752e-06 4.34649e-05 0.00681464)
(1.61787e-05 2.39153e-08 1.81373e-06 2.39153e-08 2.95389e-05 3.61063e-05 1.81373e-06 3.61063e-05 0.022975)
(0.000217246 3.71324e-07 2.43343e-06 3.71324e-07 0.000962162 9.48531e-05 2.43343e-06 9.48531e-05 0.0109778)
(0.000336872 -2.68161e-07 -2.09209e-05 -2.68161e-07 0.00015983 9.73343e-06 -2.09209e-05 9.73343e-06 0.00302136)
(8.77459e-05 -9.34204e-08 2.15657e-05 -9.34204e-08 0.00038118 3.8478e-05 2.15657e-05 3.8478e-05 0.0151845)
(1.60593e-05 1.46541e-09 -6.46117e-07 1.46541e-09 3.71947e-05 1.10678e-05 -6.46117e-07 1.10678e-05 0.0268272)
(0.000386026 -1.10058e-06 4.77183e-05 -1.10058e-06 0.00103062 9.80629e-05 4.77183e-05 9.80629e-05 0.0337757)
(0.00038977 2.25469e-09 1.34811e-05 2.25469e-09 0.000209759 6.7565e-06 1.34811e-05 6.7565e-06 0.00678857)
(5.08026e-05 -2.15586e-07 -6.75357e-06 -2.15586e-07 8.56824e-05 2.90153e-05 -6.75357e-06 2.90153e-05 0.00974152)
(1.4868e-05 -1.17929e-09 -1.08679e-05 -1.17929e-09 1e-07 3.1601e-06 -1.08679e-05 3.1601e-06 0.0395752)
(2.41558e-05 -1.70325e-07 -8.45418e-06 -1.70325e-07 9.57949e-05 3.08344e-05 -8.45418e-06 3.08344e-05 0.00948955)
(0.000101245 -1.54815e-07 -6.01221e-06 -1.54815e-07 8.45064e-06 -4.7598e-07 -6.01221e-06 -4.7598e-07 0.00258817)
(0.000103557 -2.87632e-07 3.42746e-05 -2.87632e-07 0.000392128 -1.02359e-05 3.42746e-05 -1.02359e-05 0.00312144)
(4.76648e-05 -1.47072e-07 -2.03513e-06 -1.47072e-07 9.60286e-05 4.21797e-05 -2.03513e-06 4.21797e-05 0.013816)
(6.04282e-06 -6.77302e-08 -2.56966e-06 -6.77302e-08 3.34844e-05 -3.58439e-06 -2.56966e-06 -3.58439e-06 0.00281625)
(1.92423e-05 -5.69054e-08 -1.50647e-06 -5.69054e-08 4.53418e-05 -5.01177e-06 -1.50647e-06 -5.01177e-06 0.00163558)
(0.000328967 8.09965e-09 2.31685e-05 8.09965e-09 0.00042436 -1.15559e-05 2.31685e-05 -1.15559e-05 0.00383152)
(1.603e-05 -8.52273e-09 1.52285e-06 -8.52273e-09 1.67506e-05 4.75557e-06 1.52285e-06 4.75557e-06 0.02059)
(4.14495e-06 -4.34585e-08 -1.35105e-06 -4.34585e-08 9.04112e-05 -7.714e-06 -1.35105e-06 -7.714e-06 0.00250771)
(3.45087e-05 3.01653e-08 -2.6415e-06 3.01653e-08 3.82188e-05 -9.0642e-07 -2.6415e-06 -9.0642e-07 0.000717675)
(0.000210552 -3.33479e-07 -1.72222e-05 -3.33479e-07 0.000315147 3.00523e-05 -1.72222e-05 3.00523e-05 0.0106069)
(3.68615e-06 7.58816e-11 -1.82012e-06 7.58816e-11 1.46103e-05 1.82085e-05 -1.82012e-06 1.82085e-05 0.0197037)
(3.72128e-05 -2.6648e-07 -7.98729e-06 -2.6648e-07 0.000134042 2.33724e-05 -7.98729e-06 2.33724e-05 0.0121165)
(0.000205084 -5.58649e-07 -1.23879e-05 -5.58649e-07 7.55493e-05 -3.53522e-06 -1.23879e-05 -3.53522e-06 0.00486871)
(8.6787e-05 -1.04487e-06 -2.44038e-05 -1.04487e-06 0.000163869 6.95877e-06 -2.44038e-05 6.95877e-06 0.00376313)
(2.53326e-05 -1.19324e-08 -5.43171e-06 -1.19324e-08 5.85537e-07 7.22051e-07 -5.43171e-06 7.22051e-07 0.024515)
(5.84375e-06 -1.05843e-07 -6.55402e-06 -1.05843e-07 5.84493e-05 5.09374e-06 -6.55402e-06 5.09374e-06 0.00255389)
(9.09951e-06 -1.84794e-08 -1.00034e-05 -1.84794e-08 1.84267e-06 -3.43982e-07 -1.00034e-05 -3.43982e-07 0.00505127)
(3.61082e-05 -3.46214e-07 -7.38582e-06 -3.46214e-07 0.000114671 1.63097e-05 -7.38582e-06 1.63097e-05 0.00286742)
(5.46439e-05 -3.30455e-07 4.30866e-06 -3.30455e-07 7.35794e-05 3.05762e-05 4.30866e-06 3.05762e-05 0.00689365)
(1.91844e-05 -1.09974e-07 -1.01725e-05 -1.09974e-07 2.2062e-05 8.72542e-06 -1.01725e-05 8.72542e-06 0.00315842)
(2.52067e-06 -8.3475e-09 -4.45401e-06 -8.3475e-09 5.69009e-06 1.35539e-07 -4.45401e-06 1.35539e-07 0.00360064)
(0.00114839 7.36359e-07 3.5169e-05 7.36359e-07 0.00010174 2.89369e-05 3.5169e-05 2.89369e-05 0.00450601)
(7.47234e-05 -6.99149e-08 1.29328e-05 -6.99149e-08 9.17086e-06 1.84425e-05 1.29328e-05 1.84425e-05 0.0146875)
(2.04153e-06 -1.9752e-08 -1.18464e-06 -1.9752e-08 1.1511e-05 7.05334e-06 -1.18464e-06 7.05334e-06 0.00153745)
(4.9335e-05 1.07117e-08 -1.49961e-05 1.07117e-08 2.92803e-06 1.14953e-06 -1.49961e-05 1.14953e-06 0.00251441)
(0.000410093 -1.63117e-06 -6.31149e-05 -1.63117e-06 0.000223761 2.42484e-05 -6.31149e-05 2.42484e-05 0.00797527)
(4.32886e-05 -1.2883e-07 -1.30437e-05 -1.2883e-07 3.76623e-05 3.5593e-05 -1.30437e-05 3.5593e-05 0.0287617)
(1.27932e-05 -7.33516e-08 -1.85495e-05 -7.33516e-08 3.26858e-05 2.23715e-05 -1.85495e-05 2.23715e-05 0.0150437)
(0.000131685 -1.94341e-07 -3.68095e-05 -1.94341e-07 6.35662e-05 -4.69788e-07 -3.68095e-05 -4.69788e-07 0.00482609)
(5.26463e-05 -2.06794e-07 -4.08186e-05 -2.06794e-07 2.92087e-05 1.2103e-06 -4.08186e-05 1.2103e-06 0.00351865)
(7.08381e-06 -3.90179e-08 -1.96037e-05 -3.90179e-08 7.36169e-06 3.55341e-06 -1.96037e-05 3.55341e-06 0.0109377)
(2.27333e-07 -1.42339e-08 -1.63697e-06 -1.42339e-08 1.66239e-05 7.89713e-06 -1.63697e-06 7.89713e-06 0.00386366)
(2.76184e-06 -1.65644e-08 -7.69953e-06 -1.65644e-08 5.08602e-06 1.19453e-06 -7.69953e-06 1.19453e-06 0.00665377)
(2.574e-05 -1.40996e-07 -2.03242e-05 -1.40996e-07 2.556e-05 4.20911e-06 -2.03242e-05 4.20911e-06 0.00313912)
(6.55565e-06 -5.64765e-08 -4.32404e-06 -5.64765e-08 1.16497e-05 9.75028e-06 -4.32404e-06 9.75028e-06 0.00418781)
(2.30538e-06 -1.67843e-08 -2.90411e-06 -1.67843e-08 4.45876e-06 2.89624e-06 -2.90411e-06 2.89624e-06 0.00175055)
(1e-07 -8.38888e-10 -6.62457e-07 -8.38888e-10 8.7041e-07 -3.48937e-07 -6.62457e-07 -3.48937e-07 0.00290352)
(0.000155844 -1.9381e-07 -1.81409e-05 -1.9381e-07 1.27174e-05 1.54546e-06 -1.81409e-05 1.54546e-06 0.00377444)
(6.22358e-06 -2.64801e-08 -2.65919e-06 -2.64801e-08 1.18034e-05 2.34394e-06 -2.65919e-06 2.34394e-06 0.00659507)
(3.39218e-07 -3.5937e-09 5.61351e-07 -3.5937e-09 4.03804e-06 1.91754e-06 5.61351e-07 1.91754e-06 0.00139135)
(1e-07 6.07565e-10 -2.67122e-07 6.07565e-10 7.26778e-06 -5.25573e-06 -2.67122e-07 -5.25573e-06 0.0017745)
(0.000305408 -7.64528e-07 -0.000133674 -7.64528e-07 4.38114e-05 9.56604e-06 -0.000133674 9.56604e-06 0.00750102)
(7.05294e-05 -5.81934e-07 -0.000101152 -5.81934e-07 7.08502e-05 3.6491e-05 -0.000101152 3.6491e-05 0.042775)
(2.8233e-06 -9.67076e-09 -5.28455e-06 -9.67076e-09 5.06964e-06 5.5727e-07 -5.28455e-06 5.5727e-07 0.00643286)
(3.44447e-06 3.39393e-09 -5.44168e-06 3.39393e-09 5.77036e-06 -6.03171e-06 -5.44168e-06 -6.03171e-06 0.00368722)
(0.000107535 -1.4677e-07 -4.20049e-05 -1.4677e-07 9.97422e-06 -3.37201e-07 -4.20049e-05 -3.37201e-07 0.00412059)
(3.1296e-05 -1.38148e-07 -4.96676e-05 -1.38148e-07 5.92797e-06 -1.07147e-06 -4.96676e-05 -1.07147e-06 0.0139997)
(3.85751e-07 -8.35783e-09 -3.39773e-06 -8.35783e-09 4.00559e-06 3.68446e-06 -3.39773e-06 3.68446e-06 0.0103986)
(3.57357e-05 -2.33481e-08 -2.28783e-05 -2.33481e-08 3.31181e-06 2.47508e-06 -2.28783e-05 2.47508e-06 0.0288806)
(6.29391e-05 -1.48534e-07 -1.78039e-05 -1.48534e-07 7.38527e-06 2.7267e-06 -1.78039e-05 2.7267e-06 0.00394336)
(1.13706e-05 -2.20357e-08 -5.32051e-06 -2.20357e-08 5.45806e-06 8.03857e-07 -5.32051e-06 8.03857e-07 0.00520165)
(2.38084e-07 -5.38553e-09 -1.18839e-06 -5.38553e-09 2.73377e-06 4.33232e-06 -1.18839e-06 4.33232e-06 0.00454622)
(4.44954e-07 -4.36064e-09 -1.30453e-06 -4.36064e-09 2.25383e-05 1.03078e-05 -1.30453e-06 1.03078e-05 0.00939309)
(7.54375e-05 -6.64061e-09 -9.18361e-07 -6.64061e-09 1e-07 -3.13114e-07 -9.18361e-07 -3.13114e-07 0.00343749)
(7.27903e-06 -1.98974e-08 -3.94089e-06 -1.98974e-08 2.88648e-05 -4.07204e-06 -3.94089e-06 -4.07204e-06 0.00603159)
(3.34739e-07 -2.25548e-09 -2.14833e-07 -2.25548e-09 5.98153e-06 -1.15691e-06 -2.14833e-07 -1.15691e-06 0.00201275)
(1e-07 -3.26499e-09 1.35987e-08 -3.26499e-09 2.38052e-05 -4.80302e-06 1.35987e-08 -4.80302e-06 0.00905531)
(0.000302718 -3.03673e-07 -6.71247e-05 -3.03673e-07 1.27927e-05 -3.82201e-06 -6.71247e-05 -3.82201e-06 0.00329115)
(5.56316e-05 -1.50089e-07 -3.63284e-05 -1.50089e-07 2.33681e-05 -1.05053e-05 -3.63284e-05 -1.05053e-05 0.0165091)
(1.89673e-07 -9.10783e-10 -2.01625e-06 -9.10783e-10 1.03982e-05 -5.91315e-06 -2.01625e-06 -5.91315e-06 0.00541033)
(4.14883e-07 -1.64567e-10 -1.5555e-06 -1.64567e-10 4.18891e-07 -1.81559e-06 -1.5555e-06 -1.81559e-06 0.0103264)
(0.000100304 -5.59801e-08 -3.31361e-05 -5.59801e-08 3.8721e-06 -2.338e-08 -3.31361e-05 -2.338e-08 0.00734185)
(9.98257e-06 -3.06008e-08 -1.6277e-05 -3.06008e-08 3.0799e-06 -5.2751e-06 -1.6277e-05 -5.2751e-06 0.0105072)
(3.64565e-07 -2.78434e-10 -1.78056e-06 -2.78434e-10 3.08586e-07 6.26784e-08 -1.78056e-06 6.26784e-08 0.00976937)
(0.000158066 -9.47662e-09 -6.40822e-05 -9.47662e-09 2.12101e-05 7.62124e-06 -6.40822e-05 7.62124e-06 0.0321238)
(6.21064e-05 -9.17368e-08 -1.1311e-05 -9.17368e-08 2.94663e-05 -3.26829e-06 -1.1311e-05 -3.26829e-06 0.00648955)
(4.27645e-05 -8.25139e-08 -1.19737e-05 -8.25139e-08 4.8193e-05 -1.4824e-05 -1.19737e-05 -1.4824e-05 0.00636286)
(3.64243e-07 -8.11078e-09 -4.59246e-07 -8.11078e-09 1.41409e-05 2.60613e-06 -4.59246e-07 2.60613e-06 0.00521987)
(2.20673e-05 -7.46622e-08 -1.34055e-06 -7.46622e-08 0.000101165 1.63905e-05 -1.34055e-06 1.63905e-05 0.0168489)
(2.08564e-05 2.43168e-08 6.01337e-07 2.43168e-08 5.06947e-05 -1.1e-05 6.01337e-07 -1.1e-05 0.00299711)
(0.000388058 -1.43004e-07 -1.11566e-05 -1.43004e-07 0.000729842 -7.94426e-05 -1.11566e-05 -7.94426e-05 0.00974997)
(1e-07 -1.07509e-10 -2.20377e-07 -1.07509e-10 1e-07 -3.39486e-07 -2.20377e-07 -3.39486e-07 0.00190452)
(1e-07 -1.46359e-09 7.59544e-08 -1.46359e-09 1.3758e-05 -5.26517e-06 7.59544e-08 -5.26517e-06 0.00423527)
(6.67964e-05 -3.2647e-09 -1.15644e-05 -3.2647e-09 3.02133e-07 -1.05947e-06 -1.15644e-05 -1.05947e-06 0.00308144)
(7.40624e-07 -2.94096e-10 -2.24767e-06 -2.94096e-10 1e-07 -1.03151e-06 -2.24767e-06 -1.03151e-06 0.00516102)
(1.34221e-07 7.39714e-10 -1.23519e-06 7.39714e-10 9.11149e-07 -3.12064e-06 -1.23519e-06 -3.12064e-06 0.00610447)
(1.65707e-05 4.30951e-09 -9.87653e-06 4.30951e-09 8.89433e-07 -1.48883e-06 -9.87653e-06 -1.48883e-06 0.0102894)
(0.000143699 -2.03682e-08 -6.46892e-05 -2.03682e-08 8.26539e-06 -1.08766e-05 -6.46892e-05 -1.08766e-05 0.0190137)
(1e-07 2.07731e-09 -5.17106e-07 2.07731e-09 1.91737e-05 -5.48754e-05 -5.17106e-07 -5.48754e-05 0.0274919)
(6.33273e-07 1.91967e-09 1.28619e-06 1.91967e-09 3.66157e-07 3.38616e-07 1.28619e-06 3.38616e-07 0.0277357)
(0.000136187 -1.43352e-08 -2.12196e-05 -1.43352e-08 8.14506e-06 2.15282e-06 -2.12196e-05 2.15282e-06 0.0251528)
(0.000167791 5.96389e-07 -0.000135462 5.96389e-07 0.000180027 -0.000159676 -0.000135462 -0.000159676 0.0294738)
(6.9841e-05 4.02233e-09 -1.20385e-05 4.02233e-09 0.0001117 -0.000102918 -1.20385e-05 -0.000102918 0.0211191)
(1.01399e-06 -1.41141e-08 3.28039e-06 -1.41141e-08 2.15683e-05 -2.80859e-05 3.28039e-06 -2.80859e-05 0.0130194)
(4.78727e-05 -1.75884e-07 -6.84002e-06 -1.75884e-07 9.00752e-05 -3.25508e-05 -6.84002e-06 -3.25508e-05 0.0115927)
(6.3413e-05 7.32644e-07 -3.21241e-05 7.32644e-07 0.000337841 -8.38095e-05 -3.21241e-05 -8.38095e-05 0.00746957)
(0.0039579 1.14142e-05 7.60893e-05 1.14142e-05 0.00459969 -0.000626144 7.60893e-05 -0.000626144 0.0609072)
(1e-07 -5.11502e-11 1.16684e-06 -5.11502e-11 3.13021e-05 -7.37409e-06 1.16684e-06 -7.37409e-06 0.00500142)
(3.82255e-06 2.6879e-08 8.75798e-07 2.6879e-08 8.47967e-05 -3.66066e-05 8.75798e-07 -3.66066e-05 0.00744304)
(7.74631e-06 7.89254e-09 -9.45733e-06 7.89254e-09 1e-07 -7.62398e-07 -9.45733e-06 -7.62398e-07 0.00286424)
(1e-07 1.58073e-09 1.43252e-07 1.58073e-09 3.3172e-06 -3.23361e-06 1.43252e-07 -3.23361e-06 0.00559654)
(1.33402e-06 1.79575e-08 2.88797e-06 1.79575e-08 5.43623e-06 5.64712e-06 2.88797e-06 5.64712e-06 0.00981608)
(1.11392e-05 3.12493e-08 -1.09792e-06 3.12493e-08 1.40315e-05 -1.57557e-06 -1.09792e-06 -1.57557e-06 0.0204781)
(9.75997e-06 4.94669e-08 -1.15226e-05 4.94669e-08 1.51638e-05 -4.06836e-05 -1.15226e-05 -4.06836e-05 0.0199861)
(4.75774e-06 1.16045e-07 3.6075e-06 1.16045e-07 0.000159143 -0.00017769 3.6075e-06 -0.00017769 0.0264498)
(1.31079e-06 6.36056e-10 5.9707e-06 6.36056e-10 1e-07 -3.85812e-06 5.9707e-06 -3.85812e-06 0.0320586)
(2.57616e-05 -5.85856e-09 1.4638e-05 -5.85856e-09 8.08991e-07 -2.29127e-06 1.4638e-05 -2.29127e-06 0.0296883)
(2.18868e-05 2.13929e-08 -1.85366e-05 2.13929e-08 0.000121838 -0.00011742 -1.85366e-05 -0.00011742 0.0215037)
(6.4848e-06 4.83807e-08 3.52069e-06 4.83807e-08 0.000210946 -0.000157692 3.52069e-06 -0.000157692 0.0658626)
(1.19084e-05 1.75427e-08 7.66405e-06 1.75427e-08 3.0202e-05 -2.33954e-05 7.66405e-06 -2.33954e-05 0.0133345)
(2.01281e-05 -1.03415e-07 -1.8874e-07 -1.03415e-07 3.86357e-05 -6.62193e-05 -1.8874e-07 -6.62193e-05 0.0277816)
(0.000342619 2.76336e-06 -1.14682e-05 2.76336e-06 0.00698843 -0.000658526 -1.14682e-05 -0.000658526 0.0645126)
(0.0113855 4.6342e-05 0.000189752 4.6342e-05 0.0102235 -0.00102172 0.000189752 -0.00102172 0.116517)
(1e-07 3.74649e-08 1.05952e-06 3.74649e-08 0.00129342 -0.000129128 1.05952e-06 -0.000129128 0.0566479)
(2.40596e-05 1.93936e-07 6.92105e-06 1.93936e-07 8.45339e-05 -1.70146e-05 6.92105e-06 -1.70146e-05 0.0125123)
(6.68795e-07 1.24911e-07 -1.14826e-06 1.24911e-07 0.000142904 -2.22242e-05 -1.14826e-06 -2.22242e-05 0.00375688)
(0.000543918 3.36027e-06 7.58931e-05 3.36027e-06 0.000485125 -0.00010642 7.58931e-05 -0.00010642 0.0250746)
(3.5847e-06 1.54566e-08 7.99999e-06 1.54566e-08 2.00507e-05 -1.52191e-07 7.99999e-06 -1.52191e-07 0.00747866)
(5.83105e-06 5.18559e-08 8.3261e-06 5.18559e-08 6.27476e-06 2.17892e-08 8.3261e-06 2.17892e-08 0.0133064)
(3.15141e-06 4.46918e-10 4.58319e-06 4.46918e-10 5.22388e-06 -2.31819e-06 4.58319e-06 -2.31819e-06 0.0128585)
(2.71253e-05 4.06079e-07 2.71412e-05 4.06079e-07 0.000847306 -8.80172e-05 2.71412e-05 -8.80172e-05 0.0798944)
(2.98174e-06 -3.50289e-09 4.09636e-06 -3.50289e-09 2.6545e-06 4.86422e-06 4.09636e-06 4.86422e-06 0.0161971)
(7.55067e-06 -2.56188e-09 1.19302e-05 -2.56188e-09 1e-07 7.9442e-07 1.19302e-05 7.9442e-07 0.0327)
(4.3508e-05 -6.80911e-09 1.243e-05 -6.80911e-09 2.31053e-05 -3.15263e-05 1.243e-05 -3.15263e-05 0.062595)
(1e-07 1.65006e-08 8.24163e-07 1.65006e-08 0.000779819 -0.000108003 8.24163e-07 -0.000108003 0.101222)
(0.000112388 -1.28084e-07 4.55233e-05 -1.28084e-07 0.000194766 3.30966e-06 4.55233e-05 3.30966e-06 0.0616268)
(3.51701e-05 -4.08126e-08 1.04091e-05 -4.08126e-08 6.71599e-06 -5.14641e-06 1.04091e-05 -5.14641e-06 0.0324483)
(0.000101022 -8.34199e-07 1.73941e-05 -8.34199e-07 0.00121767 -0.00036598 1.73941e-05 -0.00036598 0.0820899)
(0.00293651 3.24003e-06 0.000132385 3.24003e-06 0.00314837 -0.000161152 0.000132385 -0.000161152 0.0718991)
(3.86557e-05 5.25132e-07 4.70619e-05 5.25132e-07 0.00106318 -2.61596e-05 4.70619e-05 -2.61596e-05 0.0689044)
(0.000185379 3.86229e-07 1.14075e-05 3.86229e-07 0.000246562 -0.000152866 1.14075e-05 -0.000152866 0.0717514)
(0.000152012 -7.16625e-07 2.46982e-05 -7.16625e-07 0.000841841 -0.000181073 2.46982e-05 -0.000181073 0.0328395)
(0.000230392 6.80203e-07 3.5152e-05 6.80203e-07 0.000890241 0.000123018 3.5152e-05 0.000123018 0.0173898)
(2.2854e-06 5.21619e-08 4.94534e-06 5.21619e-08 9.52073e-05 5.55022e-05 4.94534e-06 5.55022e-05 0.0239031)
(2.37975e-05 2.05081e-08 4.0705e-06 2.05081e-08 7.52048e-05 -2.19189e-05 4.0705e-06 -2.19189e-05 0.0198249)
(2.05177e-06 -2.52304e-09 7.10581e-06 -2.52304e-09 1e-07 -3.99047e-07 7.10581e-06 -3.99047e-07 0.0177377)
(1.45202e-05 -3.96375e-08 4.33137e-06 -3.96375e-08 0.000143625 0.000118888 4.33137e-06 0.000118888 0.0348303)
(7.46957e-06 2.06434e-08 -3.50028e-06 2.06434e-08 6.75184e-06 1.24138e-05 -3.50028e-06 1.24138e-05 0.029564)
(9.94844e-06 -3.89663e-09 1.07084e-06 -3.89663e-09 1.16828e-06 -1.84606e-06 1.07084e-06 -1.84606e-06 0.0582167)
(9.29098e-06 -2.70774e-09 7.37533e-06 -2.70774e-09 1e-07 -1.77888e-07 7.37533e-06 -1.77888e-07 0.017749)
(1e-07 4.73605e-10 1.86424e-07 4.73605e-10 5.50511e-05 2.35594e-05 1.86424e-07 2.35594e-05 0.0427634)
(1.32445e-05 1.93596e-08 -5.56615e-06 1.93596e-08 2.17637e-05 1.73214e-05 -5.56615e-06 1.73214e-05 0.0120661)
(5.34145e-05 -1.03917e-08 5.20846e-06 -1.03917e-08 2.43404e-06 4.58297e-06 5.20846e-06 4.58297e-06 0.0479277)
(1.47663e-05 -2.85566e-09 3.51588e-06 -2.85566e-09 0.000314068 -4.6528e-05 3.51588e-06 -4.6528e-05 0.0687116)
(0.000258355 -2.82233e-07 2.49325e-05 -2.82233e-07 0.000847602 4.08967e-05 2.49325e-05 4.08967e-05 0.0622163)
(6.39649e-05 2.18219e-07 -1.143e-05 2.18219e-07 0.00131206 0.000128301 -1.143e-05 0.000128301 0.0640105)
(2.39989e-05 5.56622e-08 -1.79826e-05 5.56622e-08 6.9954e-05 -6.50098e-06 -1.79826e-05 -6.50098e-06 0.0395208)
(2.52752e-05 -4.34331e-07 1.20265e-05 -4.34331e-07 0.000193973 -3.61262e-05 1.20265e-05 -3.61262e-05 0.0131084)
(8.02328e-05 -5.91108e-07 1.18211e-06 -5.91108e-07 0.0010184 0.000133301 1.18211e-06 0.000133301 0.0159593)
(6.45349e-06 1.63545e-07 -5.43613e-06 1.63545e-07 0.000333241 0.000105921 -5.43613e-06 0.000105921 0.0104846)
(1.43322e-05 3.93853e-08 -1.02553e-05 3.93853e-08 0.000141536 -5.98116e-06 -1.02553e-05 -5.98116e-06 0.0388183)
(4.59725e-06 -1.40354e-08 7.1844e-07 -1.40354e-08 1.83285e-06 2.6665e-06 7.1844e-07 2.6665e-06 0.0316746)
(8.67485e-06 -2.4469e-08 -1.26731e-05 -2.4469e-08 4.72412e-05 6.23809e-05 -1.26731e-05 6.23809e-05 0.0402938)
(4.47622e-06 8.92911e-09 -8.51874e-06 8.92911e-09 3.80002e-06 1.18663e-05 -8.51874e-06 1.18663e-05 0.0328614)
(1.76791e-05 8.53558e-09 -9.69305e-06 8.53558e-09 6.66237e-06 1.44082e-05 -9.69305e-06 1.44082e-05 0.0593265)
(3.11067e-05 -3.87722e-08 -1.03404e-05 -3.87722e-08 8.70908e-06 -2.05985e-06 -1.03404e-05 -2.05985e-06 0.0139287)
(2.14358e-05 -3.86178e-09 -2.78488e-05 -3.86178e-09 4.77485e-07 4.2258e-06 -2.78488e-05 4.2258e-06 0.0340047)
(7.17758e-06 1.85677e-09 -7.61128e-06 1.85677e-09 1e-07 7.92647e-07 -7.61128e-06 7.92647e-07 0.00756985)
(9.65737e-05 3.9066e-08 -5.64013e-05 3.9066e-08 8.78887e-06 -3.2022e-07 -5.64013e-05 -3.2022e-07 0.0416959)
(2.50677e-05 2.93136e-08 -1.06739e-05 2.93136e-08 9.31174e-05 -1.98031e-05 -1.06739e-05 -1.98031e-05 0.0466918)
(6.986e-05 1.84564e-08 -4.62908e-05 1.84564e-08 0.000487931 6.51278e-05 -4.62908e-05 6.51278e-05 0.0756777)
(1.31203e-05 -7.26488e-09 -3.13366e-05 -7.26488e-09 0.000378902 0.000121674 -3.13366e-05 0.000121674 0.029085)
(2.79522e-05 4.60981e-08 -5.32714e-05 4.60981e-08 6.23569e-05 -1.88593e-05 -5.32714e-05 -1.88593e-05 0.0477683)
(1.55523e-05 -1.23729e-07 1.26908e-06 -1.23729e-07 0.000125608 -3.35645e-06 1.26908e-06 -3.35645e-06 0.0190677)
(3.66829e-05 -2.48485e-07 -3.31549e-05 -2.48485e-07 0.000700587 0.000201524 -3.31549e-05 0.000201524 0.0245039)
(1.57495e-06 -6.90818e-09 -4.20681e-06 -6.90818e-09 0.000104967 6.02094e-05 -4.20681e-06 6.02094e-05 0.00836339)
(7.00717e-06 2.26922e-08 -1.65503e-05 2.26922e-08 7.09775e-05 1.42691e-05 -1.65503e-05 1.42691e-05 0.0400976)
(6.70392e-06 -3.24511e-08 4.58267e-06 -3.24511e-08 1.27863e-05 3.44442e-06 4.58267e-06 3.44442e-06 0.0206364)
(1.31669e-05 -3.27227e-08 -4.35398e-06 -3.27227e-08 1.33254e-05 2.12207e-05 -4.35398e-06 2.12207e-05 0.0329823)
(3.33826e-06 1.90893e-09 -5.86691e-06 1.90893e-09 6.69511e-06 6.98342e-06 -5.86691e-06 6.98342e-06 0.0268486)
(1.8123e-05 -1.0068e-08 -1.40622e-05 -1.0068e-08 1.2325e-05 -1.1792e-06 -1.40622e-05 -1.1792e-06 0.037312)
(3.1957e-05 -5.36562e-08 -1.07622e-05 -5.36562e-08 2.16101e-05 -4.04317e-06 -1.07622e-05 -4.04317e-06 0.00830646)
(3.16949e-05 -1.05001e-08 -2.74298e-05 -1.05001e-08 1.21754e-06 1.95312e-06 -2.74298e-05 1.95312e-06 0.0291531)
(3.67564e-06 7.39736e-09 -3.92004e-06 7.39736e-09 5.297e-06 1.9104e-06 -3.92004e-06 1.9104e-06 0.00412545)
(8.82283e-05 3.4401e-08 -2.19606e-05 3.4401e-08 1.51005e-05 -8.98595e-07 -2.19606e-05 -8.98595e-07 0.0189189)
(1.78699e-05 -1.32876e-08 -2.03467e-05 -1.32876e-08 3.91601e-05 3.38248e-06 -2.03467e-05 3.38248e-06 0.0365925)
(2.75983e-05 -6.99381e-08 -2.4777e-05 -6.99381e-08 0.000129727 9.70059e-05 -2.4777e-05 9.70059e-05 0.0516337)
(6.02139e-06 2.47476e-09 -8.90976e-06 2.47476e-09 9.88571e-05 7.92637e-05 -8.90976e-06 7.92637e-05 0.0267289)
(6.19659e-05 7.15733e-08 -4.27061e-05 7.15733e-08 3.03109e-05 -5.85761e-06 -4.27061e-05 -5.85761e-06 0.0358016)
(4.07719e-06 1.4012e-09 -2.94411e-06 1.4012e-09 3.40052e-05 1.59709e-05 -2.94411e-06 1.59709e-05 0.00988806)
(1.07148e-05 -4.17205e-08 -4.63931e-06 -4.17205e-08 0.000211324 0.000182905 -4.63931e-06 0.000182905 0.0299301)
(8.38672e-07 -3.42447e-09 -3.32958e-06 -3.42447e-09 3.0014e-05 4.48034e-05 -3.32958e-06 4.48034e-05 0.0172757)
(3.30775e-06 -7.2797e-10 -7.68891e-06 -7.2797e-10 1.402e-05 9.22737e-06 -7.68891e-06 9.22737e-06 0.0195022)
(1.41028e-05 -5.03111e-08 -1.55876e-05 -5.03111e-08 2.48897e-05 1.62955e-05 -1.55876e-05 1.62955e-05 0.0289205)
(2.77764e-05 -5.02946e-08 -1.30605e-05 -5.02946e-08 1.042e-05 2.08067e-05 -1.30605e-05 2.08067e-05 0.0342785)
(1.00724e-05 -2.08183e-08 -1.75811e-06 -2.08183e-08 1.21725e-05 1.69173e-06 -1.75811e-06 1.69173e-06 0.0267766)
(2.54006e-05 -6.05525e-08 3.49772e-06 -6.05525e-08 2.36198e-05 2.30542e-06 3.49772e-06 2.30542e-06 0.0425024)
(3.37895e-05 -3.36373e-08 5.91262e-06 -3.36373e-08 8.66272e-05 -4.15755e-06 5.91262e-06 -4.15755e-06 0.00709169)
(4.38983e-05 -1.15628e-08 -3.83724e-06 -1.15628e-08 1.43194e-05 5.05679e-06 -3.83724e-06 5.05679e-06 0.0150351)
(1.94844e-05 1.02319e-09 -2.4092e-06 1.02319e-09 3.94812e-05 9.05833e-07 -2.4092e-06 9.05833e-07 0.00360646)
(0.000151545 -1.09098e-07 -2.63803e-06 -1.09098e-07 5.78273e-05 -1.18636e-05 -2.63803e-06 -1.18636e-05 0.0124656)
(7.30145e-06 -1.08008e-08 -3.40847e-06 -1.08008e-08 1.70369e-05 -1.37697e-06 -3.40847e-06 -1.37697e-06 0.0158793)
(1.84468e-05 -3.0664e-08 -3.2084e-06 -3.0664e-08 2.07546e-05 9.12505e-06 -3.2084e-06 9.12505e-06 0.0332207)
(3.57209e-05 9.85331e-08 4.53337e-06 9.85331e-08 2.40813e-05 1.49285e-06 4.53337e-06 1.49285e-06 0.0207373)
(9.58785e-05 1.60609e-07 6.96463e-06 1.60609e-07 4.2628e-05 -2.54668e-05 6.96463e-06 -2.54668e-05 0.0366072)
(2.26498e-06 -1.35291e-08 -1.14676e-05 -1.35291e-08 6.37805e-06 3.758e-06 -1.14676e-05 3.758e-06 0.0199164)
(2.26349e-05 -8.60825e-08 -1.92598e-05 -8.60825e-08 9.94601e-05 6.72353e-05 -1.92598e-05 6.72353e-05 0.125188)
(6.49782e-06 2.18133e-08 1.32397e-05 2.18133e-08 1.52954e-05 1.29185e-05 1.32397e-05 1.29185e-05 0.0380623)
(2.54334e-06 -3.32854e-09 -2.64425e-06 -3.32854e-09 9.56592e-06 4.12092e-06 -2.64425e-06 4.12092e-06 0.0471273)
(3.01139e-05 -2.37197e-07 -3.01894e-05 -2.37197e-07 5.72092e-05 1.61989e-05 -3.01894e-05 1.61989e-05 0.0190016)
(9.12631e-05 -1.08943e-07 -4.79363e-07 -1.08943e-07 1.2009e-05 2.66959e-06 -4.79363e-07 2.66959e-06 0.0282691)
(1.00785e-05 -3.98595e-08 3.2831e-06 -3.98595e-08 1.95031e-05 -6.13149e-07 3.2831e-06 -6.13149e-07 0.00982285)
(2.86056e-05 -5.92945e-08 -9.50024e-06 -5.92945e-08 8.23189e-06 2.37101e-06 -9.50024e-06 2.37101e-06 0.0132151)
(8.13302e-05 -3.74352e-07 -3.12928e-05 -3.74352e-07 0.000389188 -1.04523e-05 -3.12928e-05 -1.04523e-05 0.00489041)
(8.86404e-05 -3.22947e-10 1.40148e-05 -3.22947e-10 3.02934e-05 3.36488e-06 1.40148e-05 3.36488e-06 0.00876752)
(4.36999e-05 1.1569e-07 -6.2006e-06 1.1569e-07 0.000123221 8.46343e-06 -6.2006e-06 8.46343e-06 0.00254118)
(0.000156123 -3.05818e-07 3.37792e-06 -3.05818e-07 0.000140973 -5.16718e-07 3.37792e-06 -5.16718e-07 0.0048134)
(1e-07 2.95664e-10 -9.5681e-07 2.95664e-10 1e-07 -6.51653e-07 -9.5681e-07 -6.51653e-07 0.00827759)
(4.14044e-05 1.13575e-08 -3.55761e-06 1.13575e-08 3.29826e-06 1.16249e-06 -3.55761e-06 1.16249e-06 0.0298214)
(3.32503e-05 1.03008e-07 6.76895e-06 1.03008e-07 1.98547e-05 -4.61865e-06 6.76895e-06 -4.61865e-06 0.00484759)
(7.43485e-05 7.54873e-08 7.13724e-07 7.54873e-08 1.29465e-05 -8.41503e-06 7.13724e-07 -8.41503e-06 0.0105802)
(2.09089e-06 -9.57841e-09 -1.00844e-05 -9.57841e-09 2.01783e-05 -2.01836e-07 -1.00844e-05 -2.01836e-07 0.0645394)
(5.68594e-05 -4.27377e-08 -1.63358e-05 -4.27377e-08 1.79975e-05 1.36972e-05 -1.63358e-05 1.36972e-05 0.111254)
(1.3007e-05 1.22103e-08 4.03999e-06 1.22103e-08 4.16557e-05 -5.02376e-06 4.03999e-06 -5.02376e-06 0.0270078)
(1.22924e-05 -8.30712e-09 -6.50558e-06 -8.30712e-09 2.75287e-05 -9.66102e-06 -6.50558e-06 -9.66102e-06 0.0328568)
(9.69893e-05 -4.09254e-07 -1.23549e-05 -4.09254e-07 0.000128479 -4.07209e-05 -1.23549e-05 -4.07209e-05 0.0204574)
(0.000169294 -7.22203e-08 2.79065e-05 -7.22203e-08 7.3917e-06 -1.04175e-05 2.79065e-05 -1.04175e-05 0.0328075)
(2.80247e-05 1.98956e-08 2.39629e-05 1.98956e-08 5.93624e-05 -2.14112e-05 2.39629e-05 -2.14112e-05 0.0152941)
(0.000123695 -1.97869e-07 2.02869e-05 -1.97869e-07 0.00010551 -3.60634e-05 2.02869e-05 -3.60634e-05 0.0100409)
(0.000324952 -3.04892e-06 -1.67977e-05 -3.04892e-06 0.0018485 -2.53485e-05 -1.67977e-05 -2.53485e-05 0.00676684)
(0.000209019 -1.13832e-08 1.1212e-05 -1.13832e-08 0.000113891 -8.24094e-06 1.1212e-05 -8.24094e-06 0.0165686)
(7.89314e-05 1.26781e-07 6.48135e-06 1.26781e-07 0.000327134 -8.01113e-06 6.48135e-06 -8.01113e-06 0.00425333)
(0.000411254 -1.25858e-06 -3.60653e-05 -1.25858e-06 0.000647503 -5.56412e-05 -3.60653e-05 -5.56412e-05 0.00610025)
(1e-07 4.26426e-09 -7.95787e-07 4.26426e-09 3.13469e-05 -3.58574e-06 -7.95787e-07 -3.58574e-06 0.0111055)
(4.68084e-05 3.48908e-08 1.18745e-05 3.48908e-08 9.00869e-06 -2.40386e-06 1.18745e-05 -2.40386e-06 0.0362984)
(6.01354e-05 1.00644e-07 1.81627e-05 1.00644e-07 0.000102546 -1.43832e-05 1.81627e-05 -1.43832e-05 0.00623571)
(7.06564e-05 -2.23834e-08 2.88827e-06 -2.23834e-08 2.96941e-05 -2.00219e-06 2.88827e-06 -2.00219e-06 0.002987)
(1e-07 -6.34737e-10 -7.53122e-07 -6.34737e-10 3.47797e-05 -1.89302e-05 -7.53122e-07 -1.89302e-05 0.0449785)
(8.54656e-05 -1.3503e-08 4.87242e-05 -1.3503e-08 1.12728e-05 -1.13278e-05 4.87242e-05 -1.13278e-05 0.0598523)
(7.30799e-05 9.73821e-08 8.37458e-05 9.73821e-08 0.000158041 -4.95222e-05 8.37458e-05 -4.95222e-05 0.0289073)
(7.65938e-05 -2.98105e-08 3.3523e-05 -2.98105e-08 0.000157778 -4.19403e-05 3.3523e-05 -4.19403e-05 0.0187258)
)
;

boundaryField
{
    bottom
    {
        type            cyclic;
    }
    top
    {
        type            cyclic;
    }
    lr1
    {
        type            cyclic;
    }
    lr2
    {
        type            cyclic;
    }
    vh1
    {
        type            cyclic;
    }
    vh2
    {
        type            cyclic;
    }
}


// ************************************************************************* //
