/*--------------------------------*- C++ -*----------------------------------*\
  =========                 |
  \\      /  F ield         | OpenFOAM: The Open Source CFD Toolbox
   \\    /   O peration     | Website:  https://openfoam.org
    \\  /    A nd           | Version:  6
     \\/     M anipulation  |
\*---------------------------------------------------------------------------*/
FoamFile
{
    version     2.0;
    format      ascii;
    class       volVectorField;
    location    "2.74";
    object      U;
}
// * * * * * * * * * * * * * * * * * * * * * * * * * * * * * * * * * * * * * //

dimensions      [0 1 -1 0 0 0 0];

internalField   nonuniform List<vector> 
256
(
(0.011905 0.0502836 0.00492679)
(0.0364123 0.0680179 0.273858)
(-0.00957934 0.0307429 0.0436873)
(-0.0283466 0.0198623 -0.0172706)
(0.0190096 -0.00520277 -0.014596)
(0.0125513 -0.00240324 0.056007)
(-0.0290682 -0.00614603 -0.0151005)
(-0.0295017 -0.0107054 0.0284005)
(0.0189607 -0.0369051 -0.0548998)
(0.0277794 -0.0555289 0.283721)
(-0.0248692 -0.0240094 0.0303422)
(-0.0380192 -0.0231064 0.0887158)
(-0.0109964 0.0163525 0.010901)
(0.0694176 0.00737355 0.319004)
(0.0280499 0.0165648 0.170069)
(-0.0483745 0.00981258 0.0305669)
(-0.0039763 0.0450266 0.17659)
(-0.00844824 0.0512103 0.692974)
(-0.0134135 0.0356199 0.253709)
(-0.00756431 0.0344324 0.200685)
(-0.00160803 0.0170025 0.14865)
(-0.0128741 -0.00487647 0.218583)
(-0.00964853 -0.00108247 0.151328)
(-0.00939437 -0.00306508 0.128655)
(-0.000890187 0.0280523 0.0699116)
(-0.00294168 -0.0257947 0.561575)
(0.00243848 -0.00529146 0.163357)
(-0.00943727 -0.00102173 0.128285)
(0.000451382 0.0543466 0.220114)
(0.0218779 0.0307697 0.494325)
(-0.0012755 0.0320319 0.517251)
(-0.0077138 0.0364034 0.268108)
(-0.0169729 0.00909132 0.0795217)
(-0.0308955 0.0322433 0.335044)
(-0.00651635 0.0182383 0.0878159)
(0.00551682 0.0151342 -0.0323585)
(0.0074589 0.0129782 -0.00293333)
(-0.0186638 0.00969118 0.120042)
(-0.01113 0.00405608 -0.00675011)
(0.00418595 0.0026702 0.0341468)
(-0.0350275 0.0201991 -0.0158125)
(-0.0356296 -0.0123397 0.204054)
(0.0221089 -0.00738782 0.0287072)
(0.0128662 -0.0154866 -0.015403)
(-0.0125635 0.0175108 0.0333614)
(-0.028927 0.0181144 0.246553)
(-0.011827 0.00398867 0.256866)
(0.011393 -0.00499122 0.00464432)
(-0.0205203 0.0123695 0.32841)
(-0.042429 0.0110659 0.509856)
(-0.00360786 0.0261953 0.306226)
(0.0140922 -0.0034081 0.0768478)
(0.0161602 0.0116163 0.157582)
(-0.0193243 0.0212909 0.341632)
(-0.0167822 0.0148991 0.16326)
(0.00949973 0.00850883 0.0619158)
(-0.0488859 -0.00191477 0.208267)
(-0.0432227 0.00284425 0.275761)
(0.000802832 -0.0157553 0.200818)
(-0.0110876 0.00201186 0.101454)
(-0.0413379 -0.00843054 0.348694)
(-0.062633 -0.00330647 0.511495)
(-0.0296176 -0.0116738 0.475631)
(-0.00647541 -0.0150453 0.192315)
(-0.0384239 0.0206757 0.195955)
(-0.0397515 0.0195514 0.220873)
(0.0204073 0.0238849 0.0278096)
(0.0209356 0.0178702 -0.0838501)
(-0.0101243 0.00796377 0.134988)
(-0.020803 0.0153394 0.178585)
(0.0206596 0.0229709 0.119944)
(0.0245352 0.000328201 -0.127056)
(-0.0309682 -0.0162693 0.101327)
(-0.0190715 0.00574149 0.0319088)
(0.0316068 -0.0171904 0.107945)
(0.0162984 -0.0274987 0.0531127)
(-0.0365165 -0.0171949 0.200604)
(-0.0611326 0.00179743 0.369358)
(-0.0106693 -0.0228606 0.202668)
(0.0160216 -0.00986376 0.0445829)
(-0.0619942 0.0158443 0.281353)
(-0.0505713 0.0230152 0.300848)
(0.0132442 0.00674459 0.0909613)
(0.00284718 0.0172596 0.203279)
(-0.0362853 0.00035961 0.26941)
(-0.036917 0.00913975 0.247828)
(0.02984 0.0172758 0.15644)
(0.024517 -0.0201331 0.16051)
(-0.0337566 -0.0130303 0.276584)
(-0.0188025 0.00628738 0.0127723)
(0.03336 -0.010446 0.236301)
(0.0233493 -0.0340759 0.165232)
(-0.058692 -0.00793178 0.353647)
(-0.0693805 0.00931371 0.509478)
(0.00885785 -0.0205851 0.265998)
(0.0222794 0.00741302 0.160346)
(-0.0661997 0.0138408 0.241769)
(-0.02211 0.0158772 0.118869)
(0.017573 0.00509048 -0.0209367)
(-0.0371718 -0.0109436 0.0378525)
(-0.0446587 -0.0197658 0.224137)
(-0.0190447 0.0280375 0.0590146)
(0.0364611 -0.0183082 0.016494)
(0.00243175 -0.0482857 0.0231124)
(0.012573 -0.0222163 0.25464)
(-0.00599447 0.00226541 -0.0988954)
(-0.00723544 -0.0197488 0.178607)
(0.00630041 -0.0262007 0.0435447)
(-0.0684291 0.00799445 0.335014)
(-0.0408 -0.0213121 0.289554)
(0.0268434 0.00600881 0.0348753)
(-0.00569448 0.0136993 0.0107994)
(-0.0358195 -0.0177854 0.331464)
(0.0110452 -0.0260213 0.253468)
(0.00943582 -0.0191849 0.163792)
(-0.0294707 -0.0133086 0.452473)
(-0.0223096 -0.0136004 0.341945)
(0.0096334 0.0266002 0.13033)
(0.0184469 0.00168396 0.14324)
(-0.0087164 -0.0192149 0.364887)
(0.0536068 0.00291799 0.267523)
(0.00265104 -0.0136586 0.352677)
(-0.0453652 -0.000630086 0.220425)
(0.00431921 -0.0082451 0.243472)
(0.00141805 -0.00575242 0.3379)
(0.00758988 -0.0615831 0.305734)
(-0.00242591 -0.0176299 0.127875)
(-0.00125353 -0.00242003 0.307315)
(0.0363172 -0.0494815 0.230568)
(0.00784811 -0.0130539 -0.0298023)
(-0.0305905 -0.0405053 0.0313287)
(0.000505767 -0.0296382 0.165761)
(0.0702524 0.00228955 0.00343419)
(0.0199189 0.0426933 -0.141498)
(-0.0684068 0.0427078 -0.0971762)
(-0.0121822 0.0457461 0.100485)
(0.0955303 -0.0050162 0.0377782)
(0.0117398 -0.0518367 0.193943)
(-0.0924807 -0.00258346 -0.00684926)
(-0.00743162 0.0315502 -0.0935045)
(0.0600399 -0.059616 0.205906)
(0.00702757 -0.120432 0.181268)
(-0.0567539 -0.082135 -0.0432641)
(-0.00593603 -0.0500324 0.0654743)
(0.0365865 -0.0347011 0.282299)
(0.00928261 -0.0116291 0.177236)
(-0.0275296 -0.0399242 0.0705533)
(-0.0093135 -0.0390665 0.287903)
(0.0357033 0.012003 0.157641)
(0.0130249 -0.00561035 0.454952)
(-0.0410917 0.00846264 0.0237445)
(-0.0198654 0.0267563 0.168077)
(0.0306012 0.0213006 0.41991)
(0.0187238 -0.042247 1.03787)
(-0.0379714 0.00932594 0.458859)
(-0.0195558 0.0402978 0.115576)
(0.0292006 -0.0361969 0.268552)
(0.0107998 -0.0649628 0.410525)
(-0.0209108 -0.0428297 0.125333)
(-0.0208962 -0.0274547 0.284524)
(0.00664269 -0.0322262 0.0552819)
(0.00401169 -0.0037307 -0.0023318)
(-0.00234425 -0.0306483 -0.0678034)
(-0.0124247 -0.0320914 -0.0502904)
(-0.021365 0.0032517 -0.0875096)
(-0.00792385 -0.039618 0.0777771)
(0.00956683 -0.0140875 -0.109477)
(-0.00731599 0.00179369 -0.0880296)
(-0.0488102 0.0472366 0.0111199)
(-0.0122516 0.0316241 0.461918)
(0.0301286 0.0633452 0.145503)
(0.00703323 0.0339467 -0.073712)
(-0.0203489 0.0174216 0.173117)
(0.00119196 0.0706054 0.244443)
(0.0203777 0.0445362 0.0361914)
(-0.0138484 0.0196671 0.0142666)
(-0.00697902 -0.0263785 0.237714)
(0.00286197 -0.00536712 0.34826)
(0.0116532 -0.0140012 0.0829478)
(-0.0106048 -0.0228502 0.279365)
(-0.033614 0.00180926 0.0460686)
(-0.020209 -0.0379252 0.462914)
(0.0229869 -0.011184 -0.119222)
(0.00251383 0.00567815 0.168983)
(-0.0750301 0.0139744 0.516063)
(-0.0328335 0.0387221 0.669383)
(0.0453242 0.0398159 0.321082)
(0.0133966 0.0184786 0.207024)
(-0.0373096 0.0217146 0.346719)
(-0.0067252 0.0878867 0.433663)
(0.025737 0.0445906 0.332769)
(-0.0120579 0.0157063 0.416869)
(-0.0456824 0.0100714 0.0200592)
(-0.0147745 -0.033551 0.101604)
(0.0218065 0.00278649 0.0122542)
(0.000750796 -0.0103601 0.0208911)
(-0.0407492 -0.0129898 -0.0465913)
(-0.0180865 -0.0234769 0.0408269)
(0.0283293 -0.0144832 -0.154472)
(0.00540188 0.00249905 -0.0163936)
(-0.0850331 -0.0120051 0.0664194)
(-0.0358581 0.0411175 0.156023)
(0.0378899 0.00564862 0.0355038)
(0.00895122 0.00663253 0.0444947)
(-0.0310135 0.0337913 0.248112)
(-0.0126117 0.0578139 0.25392)
(0.0134738 0.0319217 0.164007)
(-0.00660575 0.00957544 0.14315)
(0.00264499 0.0146508 0.344073)
(0.00488559 -0.0228388 0.367644)
(-0.0151122 0.0132842 0.105543)
(-0.00338991 0.0165724 0.406794)
(-0.0164616 -0.0104244 0.136553)
(0.00375428 -0.0079767 0.153137)
(0.00700381 0.00117561 -0.0979625)
(-0.00844268 0.00293375 0.145214)
(-0.00310756 -0.0277419 0.375551)
(0.00530108 0.0221877 0.389565)
(-0.0117472 -0.0143423 0.0890719)
(0.00361626 -0.0209807 0.438803)
(-0.000742069 0.0168638 0.341202)
(-0.0126986 0.0258329 0.531666)
(-0.0376622 -0.00194139 0.26053)
(-0.00616023 -0.00401138 0.453006)
(0.0563983 -0.0173018 0.0297008)
(0.0269245 -0.035431 0.196601)
(-0.0437536 0.00725501 -0.0262614)
(-0.0169724 0.0170979 0.0831429)
(0.0156196 -0.0119106 0.0136097)
(0.0130149 -0.0116242 -0.0392038)
(-0.0381528 -0.00806226 -0.0821057)
(-0.0242403 0.00720017 0.069646)
(0.0465722 0.00594798 0.0338244)
(0.0236027 0.0291788 0.151109)
(-0.0459544 -0.0144874 -0.0201428)
(-0.0229509 -0.0273996 0.14213)
(0.078362 0.000944008 -0.0124185)
(-0.0125497 0.0110817 0.266463)
(-0.0799206 -0.00834758 0.0911189)
(0.00356354 -0.014023 0.108567)
(0.0247602 0.0107713 0.182108)
(0.0355719 0.0207142 0.571435)
(-0.0152667 0.0134287 0.0895953)
(-0.0259911 -0.00826817 0.227998)
(0.0085228 -0.0137666 0.0869475)
(0.00785067 -0.00162036 0.0883275)
(-0.0336754 -0.0107296 -0.0152631)
(-0.0358249 -0.0131704 0.184511)
(0.0251064 -0.0261066 0.100584)
(0.0231603 -0.0222661 0.4495)
(-0.0276139 -0.0311978 0.0864888)
(-0.0294142 -0.0424954 0.337438)
(0.029952 -0.00547486 0.535921)
(0.0279258 -0.0053556 0.985686)
(-0.0205423 -0.00571054 0.281794)
(-0.0310714 -0.0314504 0.311564)
)
;

boundaryField
{
    bottom
    {
        type            cyclic;
    }
    top
    {
        type            cyclic;
    }
    lr1
    {
        type            cyclic;
    }
    lr2
    {
        type            cyclic;
    }
    vh1
    {
        type            cyclic;
    }
    vh2
    {
        type            cyclic;
    }
}


// ************************************************************************* //
