/*--------------------------------*- C++ -*----------------------------------*\
  =========                 |
  \\      /  F ield         | OpenFOAM: The Open Source CFD Toolbox
   \\    /   O peration     | Website:  https://openfoam.org
    \\  /    A nd           | Version:  6
     \\/     M anipulation  |
\*---------------------------------------------------------------------------*/
FoamFile
{
    version     2.0;
    format      ascii;
    class       volVectorField;
    location    "2.74";
    object      U.air;
}
// * * * * * * * * * * * * * * * * * * * * * * * * * * * * * * * * * * * * * //

dimensions      [0 1 -1 0 0 0 0];

internalField   nonuniform List<vector> 
256
(
(0.0128926 0.0529008 0.033674)
(0.0375567 0.0703973 0.319928)
(-0.00980885 0.0306538 0.0745986)
(-0.0291643 0.0190746 0.000692097)
(0.0201949 -0.00451809 0.000859495)
(0.0134482 -0.00220137 0.0926669)
(-0.0302254 -0.00610107 -0.00216576)
(-0.0304353 -0.0118515 0.0396484)
(0.019894 -0.0377193 -0.0391529)
(0.0289657 -0.0575585 0.330188)
(-0.0258707 -0.0230695 0.0478252)
(-0.039625 -0.0225695 0.100486)
(-0.0123175 0.0170056 0.0350115)
(0.0728087 0.00774466 0.356728)
(0.0309448 0.0172378 0.204943)
(-0.0503009 0.0104345 0.0482878)
(-0.00381541 0.0471822 0.202584)
(-0.00891824 0.0517402 0.730906)
(-0.0150416 0.036114 0.280431)
(-0.00855578 0.0351576 0.215749)
(-0.00190683 0.0208292 0.161832)
(-0.0141022 -0.00507306 0.258279)
(-0.0109655 0.000345349 0.162365)
(-0.00996793 -0.00173878 0.135607)
(-0.000787589 0.0321912 0.0832879)
(-0.00283327 -0.0252698 0.59878)
(0.00158356 -0.00238706 0.180732)
(-0.0104119 0.00325338 0.138965)
(0.000541587 0.0571527 0.238712)
(0.0225513 0.0319161 0.51761)
(-0.00170965 0.0337932 0.551787)
(-0.00883853 0.0390057 0.285254)
(-0.0173846 0.00834502 0.101061)
(-0.0323687 0.031287 0.372026)
(-0.00816904 0.0178618 0.109866)
(0.00450309 0.0141027 -0.017775)
(0.00759219 0.0150322 0.00782412)
(-0.0200546 0.00986896 0.158464)
(-0.0128658 0.00465907 0.00312215)
(0.00410898 0.0035989 0.0394558)
(-0.0370249 0.0234511 -0.00439303)
(-0.0377524 -0.0106907 0.239003)
(0.0218301 -0.00620386 0.0443383)
(0.0122242 -0.0135372 -0.00600022)
(-0.0131312 0.0187056 0.0500702)
(-0.0306664 0.0185002 0.270325)
(-0.0138227 0.00432588 0.29287)
(0.010365 -0.00485832 0.0240813)
(-0.0215585 0.011551 0.343426)
(-0.0445956 0.00850765 0.541817)
(-0.00477569 0.0259176 0.322358)
(0.0137004 -0.00501171 0.0965396)
(0.0158131 0.012583 0.167659)
(-0.0206627 0.0213637 0.369609)
(-0.0182167 0.0156131 0.17349)
(0.00903908 0.00924662 0.0731603)
(-0.0539956 -0.000467137 0.218636)
(-0.0472836 0.00543669 0.305001)
(-0.00016805 -0.0154707 0.213048)
(-0.0154041 0.00357176 0.114424)
(-0.0434368 -0.00853189 0.363796)
(-0.0659144 -0.00368726 0.538194)
(-0.033117 -0.0121551 0.5084)
(-0.0100747 -0.0152854 0.214866)
(-0.0406298 0.0202606 0.210408)
(-0.0416815 0.0171601 0.255074)
(0.0213925 0.0242167 0.043515)
(0.0212382 0.0182927 -0.05949)
(-0.0126442 0.00844241 0.148516)
(-0.021822 0.014308 0.200907)
(0.0222827 0.0238943 0.131116)
(0.0248115 1.66216e-05 -0.110976)
(-0.0342839 -0.0161111 0.115508)
(-0.0205214 0.00838539 0.0604932)
(0.0335024 -0.0178417 0.120429)
(0.0160799 -0.0281362 0.0695158)
(-0.0383782 -0.0177431 0.216991)
(-0.0642405 0.00231924 0.404326)
(-0.0125826 -0.0240121 0.237108)
(0.0157003 -0.00991175 0.0726958)
(-0.0678406 0.0156913 0.303234)
(-0.0543532 0.0224587 0.341584)
(0.0140767 0.0071624 0.119615)
(-2.06e-05 0.0183579 0.239341)
(-0.0410087 0.000309692 0.288695)
(-0.0396599 0.00794243 0.271349)
(0.0328783 0.0174227 0.17178)
(0.024377 -0.0222965 0.180781)
(-0.0369609 -0.0131132 0.296666)
(-0.0209629 0.0072068 0.0464338)
(0.0357832 -0.0113324 0.253312)
(0.0240183 -0.0362535 0.186446)
(-0.0628668 -0.0080753 0.374619)
(-0.074224 0.0103002 0.548731)
(0.00885868 -0.0215583 0.301614)
(0.0226158 0.00828646 0.199076)
(-0.07341 0.0146167 0.271435)
(-0.0247325 0.0164044 0.159074)
(0.017855 0.00601039 0.0212181)
(-0.0415625 -0.0116024 0.0777283)
(-0.0499146 -0.0214759 0.248147)
(-0.0219524 0.0303143 0.0849495)
(0.0396052 -0.0203788 0.0377079)
(0.00146996 -0.0517854 0.0469639)
(0.0133979 -0.0235934 0.274436)
(-0.00681155 0.000661353 -0.0481622)
(-0.00851464 -0.0218431 0.195703)
(0.00664869 -0.0283229 0.0639041)
(-0.0738994 0.00876443 0.358119)
(-0.0461791 -0.0240296 0.328009)
(0.0278238 0.00626531 0.0700458)
(-0.00752155 0.0146782 0.0524555)
(-0.0395084 -0.0188355 0.365815)
(0.0102614 -0.028266 0.293544)
(0.00904258 -0.0196987 0.220825)
(-0.0323554 -0.0136708 0.488423)
(-0.0259798 -0.015128 0.373637)
(0.00820593 0.0270433 0.181315)
(0.0198232 -1.46227e-06 0.171157)
(-0.0101189 -0.0213893 0.392765)
(0.0599479 0.00292882 0.303153)
(0.00362723 -0.0217884 0.457531)
(-0.0514713 -0.000893572 0.257044)
(0.00433752 -0.00924444 0.26279)
(0.00220355 -0.00535661 0.362698)
(0.00855603 -0.0728724 0.357553)
(-0.0032672 -0.0166756 0.161151)
(-0.00160806 -0.00131301 0.342965)
(0.040136 -0.0522786 0.263286)
(0.00870165 -0.015552 0.0145352)
(-0.0342258 -0.0426528 0.0849864)
(0.00088987 -0.031238 0.199598)
(0.0774733 0.00216114 0.0474822)
(0.021623 0.043848 -0.05334)
(-0.0760527 0.0475275 -0.0595902)
(-0.0128151 0.048347 0.135493)
(0.107579 -0.0151207 0.112384)
(0.014526 -0.0639091 0.305495)
(-0.102266 -0.00421765 0.0692962)
(-0.00838626 0.0328068 -0.066665)
(0.0678415 -0.0711917 0.234293)
(0.00944913 -0.136608 0.240692)
(-0.0637953 -0.0904543 -0.00926838)
(-0.00645661 -0.0533016 0.0942625)
(0.0408538 -0.0360488 0.311251)
(0.0106753 -0.0117945 0.232431)
(-0.0313947 -0.0405948 0.118287)
(-0.00957867 -0.0407316 0.332092)
(0.0410394 0.0140261 0.210257)
(0.0137823 -0.00813461 0.557942)
(-0.0463243 0.0124755 0.0701627)
(-0.0206559 0.0306475 0.210789)
(0.0360105 0.0166111 0.518202)
(0.0209025 -0.0502835 1.13444)
(-0.0409362 0.00820085 0.548958)
(-0.0208111 0.0400206 0.158496)
(0.0334375 -0.0437785 0.306959)
(0.0124211 -0.0712926 0.45678)
(-0.0240395 -0.0479983 0.163373)
(-0.0221843 -0.032468 0.314201)
(0.00792104 -0.031793 0.0899302)
(0.00529074 0.000616205 0.0546893)
(-0.0027052 -0.0292092 -0.00930662)
(-0.0131429 -0.0308736 0.00941052)
(-0.0228621 0.00559183 -0.0410161)
(-0.00797016 -0.0405328 0.160717)
(0.010653 -0.0114142 -0.0590038)
(-0.0076704 0.00366372 -0.0354494)
(-0.0524892 0.0488419 0.0881363)
(-0.0137833 0.033397 0.55781)
(0.0330308 0.0711523 0.228591)
(0.00854149 0.0342537 -0.0206164)
(-0.0212873 0.017445 0.21251)
(0.00234136 0.0763022 0.280666)
(0.0219615 0.0497867 0.0698445)
(-0.0143514 0.0193787 0.0563877)
(-0.00828372 -0.0250775 0.277423)
(0.00393434 -0.00369758 0.399875)
(0.0131188 -0.0134679 0.146547)
(-0.0116801 -0.0216086 0.334364)
(-0.0372703 0.00184812 0.0791439)
(-0.0211915 -0.0403446 0.515412)
(0.0251999 -0.0118503 -0.0765672)
(0.00216597 0.00643327 0.216901)
(-0.08096 0.0144156 0.561454)
(-0.0347631 0.0411636 0.740048)
(0.0495669 0.0435401 0.383855)
(0.0133273 0.0185135 0.260844)
(-0.03997 0.0229654 0.377578)
(-0.00614046 0.0936234 0.466233)
(0.0282582 0.0482806 0.365617)
(-0.0125809 0.0161138 0.460473)
(-0.0493192 0.0118949 0.0531052)
(-0.0155834 -0.0367168 0.150703)
(0.025308 0.00309754 0.069795)
(0.00113591 -0.00980481 0.0645655)
(-0.0451561 -0.0156035 -0.0186841)
(-0.0196048 -0.0263276 0.0820211)
(0.0318195 -0.0166332 -0.123598)
(0.00565118 0.001589 0.0218201)
(-0.0910425 -0.0128942 0.0993599)
(-0.0384073 0.0448774 0.204218)
(0.0427602 0.00679085 0.0881472)
(0.00817675 0.00612261 0.0938825)
(-0.0320796 0.0364432 0.273668)
(-0.0124599 0.0606274 0.299372)
(0.0142687 0.0348416 0.20875)
(-0.0071446 0.0103052 0.183245)
(0.00395692 0.0149978 0.372368)
(0.00464776 -0.0261894 0.420682)
(-0.0159253 0.0130441 0.152526)
(-0.00256477 0.0169855 0.441192)
(-0.017856 -0.0118811 0.160299)
(0.00342653 -0.00930048 0.184629)
(0.00788187 0.000477317 -0.0761387)
(-0.00889459 0.00197435 0.173754)
(-0.00317991 -0.0285544 0.399871)
(0.00518629 0.0248476 0.434449)
(-0.0125041 -0.0143785 0.126604)
(0.00315443 -0.0220778 0.475288)
(0.0011856 0.0180591 0.37228)
(-0.0121529 0.0263307 0.605798)
(-0.039699 -0.00147973 0.313217)
(-0.00672247 -0.00383234 0.485466)
(0.0609864 -0.0209744 0.0596954)
(0.0276764 -0.0395134 0.257799)
(-0.0474594 0.00520074 0.00966512)
(-0.0164129 0.0156336 0.110872)
(0.0165557 -0.0133061 0.0338135)
(0.0130399 -0.0131008 -0.0098227)
(-0.0396216 -0.00856087 -0.0662376)
(-0.0246509 0.00670574 0.092375)
(0.0492994 0.00868556 0.0538894)
(0.024159 0.0328654 0.209889)
(-0.0490779 -0.0136233 0.00165972)
(-0.0235702 -0.0266135 0.167075)
(0.0837559 0.00164847 0.0259626)
(-0.0140641 0.011703 0.360155)
(-0.0842813 -0.00869068 0.138129)
(0.00526966 -0.0140397 0.133072)
(0.0260357 0.0099336 0.212889)
(0.0371984 0.0216175 0.62753)
(-0.0151762 0.011691 0.122935)
(-0.0265422 -0.0125644 0.24916)
(0.00815479 -0.0154189 0.10476)
(0.00742993 -0.00169264 0.122331)
(-0.0356037 -0.0120464 -0.00197021)
(-0.0378096 -0.0168866 0.201511)
(0.0255965 -0.0268157 0.119882)
(0.0239098 -0.0233729 0.506688)
(-0.02825 -0.0318649 0.103783)
(-0.0301798 -0.0436125 0.352895)
(0.0300314 -0.00519088 0.565278)
(0.0293847 -0.00534043 1.05094)
(-0.0194023 -0.00642922 0.320506)
(-0.0313992 -0.0330407 0.329679)
)
;

boundaryField
{
    bottom
    {
        type            cyclic;
    }
    top
    {
        type            cyclic;
    }
    lr1
    {
        type            cyclic;
    }
    lr2
    {
        type            cyclic;
    }
    vh1
    {
        type            cyclic;
    }
    vh2
    {
        type            cyclic;
    }
}


// ************************************************************************* //
