/*--------------------------------*- C++ -*----------------------------------*\
  =========                 |
  \\      /  F ield         | OpenFOAM: The Open Source CFD Toolbox
   \\    /   O peration     | Website:  https://openfoam.org
    \\  /    A nd           | Version:  6
     \\/     M anipulation  |
\*---------------------------------------------------------------------------*/
FoamFile
{
    version     2.0;
    format      ascii;
    class       volVectorField;
    location    "2.74";
    object      U.airMean;
}
// * * * * * * * * * * * * * * * * * * * * * * * * * * * * * * * * * * * * * //

dimensions      [0 1 -1 0 0 0 0];

internalField   nonuniform List<vector> 
256
(
(-0.00111704 -0.000436958 0.155584)
(0.00254936 -0.0022494 0.140873)
(-0.00150133 -0.00180641 0.140849)
(-0.00505799 -0.00416885 0.160598)
(-0.00150158 -0.000904024 0.127097)
(-0.00297321 -0.00524457 0.141261)
(-0.00181185 -0.00476012 0.159503)
(-0.00124447 -0.0010379 0.150074)
(-0.00339471 -0.00102338 0.0976185)
(-0.00266522 -0.000970292 0.0963549)
(0.00491219 0.00074428 0.151291)
(0.00382065 0.00125812 0.143701)
(0.00134108 -0.000110931 0.112183)
(0.00328263 0.000988361 0.104622)
(-0.00031517 0.00377197 0.117017)
(-0.00292057 -0.00262748 0.138515)
(-0.00103784 -0.00201524 0.298371)
(2.66747e-06 -0.00303443 0.292871)
(-0.00141875 -0.001252 0.31245)
(-0.00161499 -0.00167431 0.304634)
(-0.00183371 0.00231993 0.281839)
(-0.00279554 -0.00197124 0.277539)
(0.00248063 -0.0024249 0.277769)
(0.00230922 0.0017677 0.276023)
(0.000133178 -4.69255e-05 0.241566)
(-0.00232806 -0.0017585 0.25121)
(0.00463889 -0.000357553 0.276149)
(0.00701987 0.000410591 0.303043)
(0.00321011 -0.00366809 0.254207)
(0.00123751 -0.00430158 0.241758)
(0.000295636 -3.81237e-05 0.251333)
(0.00143022 -0.0033476 0.268843)
(-0.00388494 0.00213454 0.154426)
(0.00031134 -0.00144851 0.146552)
(0.00212141 -0.00181464 0.154912)
(-0.00186275 -0.000179949 0.156005)
(-0.00150635 0.00898203 0.138262)
(0.00146756 0.00622406 0.133429)
(0.00399125 0.00258062 0.154985)
(-0.00116902 0.00384772 0.148615)
(0.00331711 0.000127399 0.115507)
(0.00174105 -0.000927328 0.104167)
(0.00334303 -0.00099499 0.141079)
(0.00411562 0.00283623 0.166037)
(0.000131768 -0.00413917 0.116103)
(0.00456303 -0.00846553 0.104575)
(0.0026941 -0.00484811 0.115418)
(-0.00223931 -0.000468021 0.132639)
(-0.00206178 0.00324631 0.275902)
(0.00296076 -9.29802e-05 0.260323)
(0.00126037 -0.0028938 0.298199)
(-0.00267316 -0.000315947 0.300284)
(0.00194428 0.00823136 0.283028)
(0.00338483 0.00766277 0.268027)
(0.000236584 0.00150245 0.290563)
(-0.00282493 0.00181393 0.279956)
(0.00440493 0.00380791 0.266915)
(0.00172204 0.000389458 0.264876)
(-0.00317131 0.00127152 0.280502)
(-0.00011575 0.00266742 0.30931)
(0.00114484 -0.00105829 0.242245)
(0.00469301 -0.00624 0.239778)
(0.000256186 -0.00168236 0.262405)
(-0.00257777 0.0021387 0.279103)
(0.00476696 0.00124459 0.133182)
(0.00560236 0.000369712 0.126476)
(-0.00151394 -0.00319361 0.153141)
(-0.00137283 0.00284915 0.157461)
(0.00306312 0.00685379 0.136702)
(0.00597846 0.00414278 0.124718)
(0.00164803 0.000960724 0.161426)
(-0.00120476 0.00622968 0.145151)
(0.000631176 0.00448261 0.123703)
(0.00198963 0.00113126 0.128611)
(-0.00255973 0.000132435 0.140192)
(-0.0026804 0.00153012 0.157452)
(0.00554322 -0.00125526 0.108608)
(0.00565344 -0.00152705 0.107212)
(0.000108546 -0.00152179 0.126011)
(0.00204453 -0.0011029 0.139111)
(0.00666381 -8.60677e-05 0.255661)
(0.00245792 -2.67929e-05 0.267643)
(-0.00588281 -0.000628543 0.307659)
(-0.00113812 0.0031353 0.277238)
(0.00506136 0.00444386 0.280301)
(0.0065574 0.000174497 0.272615)
(0.000288817 0.000127443 0.299642)
(0.000177009 0.00711433 0.287559)
(0.000888845 0.00293021 0.270225)
(0.000346175 0.00230519 0.279419)
(-0.00114751 -0.000414018 0.288933)
(0.00110472 0.000393647 0.311977)
(0.00458568 -0.000223265 0.253962)
(0.000425498 0.00199752 0.252614)
(-0.00349504 0.000539128 0.27622)
(0.00192543 -0.00264313 0.276989)
(0.00541776 -0.00171166 0.118704)
(-0.00506638 -0.000315329 0.1347)
(-0.00882465 -0.00140707 0.15491)
(0.00110153 0.00190802 0.122472)
(0.00124593 -0.00390902 0.126268)
(0.00195524 -0.0053793 0.133359)
(0.00227211 -0.00244104 0.170709)
(0.00210137 0.000833782 0.143929)
(0.00400415 0.000770757 0.122993)
(-0.00117022 0.00463993 0.127863)
(0.0027692 0.00148488 0.140117)
(0.00800277 -0.000245383 0.161712)
(0.00162568 0.00238813 0.112863)
(-0.00360824 0.00842774 0.124912)
(-0.00326952 0.0024026 0.120885)
(0.000653012 0.00172619 0.129497)
(0.00260244 -0.00146521 0.27351)
(-0.00295281 0.00140082 0.30697)
(0.000278558 -0.00242781 0.308)
(0.00453558 0.0002066 0.254766)
(0.000948806 -0.00432913 0.277543)
(0.000798883 -0.00139722 0.260778)
(0.00533044 -0.00173595 0.296143)
(0.00488805 -0.0032317 0.293282)
(0.00296157 0.000224311 0.276102)
(-0.000210458 0.00490729 0.251447)
(0.00524624 0.00318095 0.269109)
(0.00762141 0.000310686 0.302776)
(0.0011436 0.0032834 0.267031)
(-0.00319556 0.0073808 0.267013)
(-0.000681124 0.00187475 0.278439)
(0.000989802 0.00386446 0.275012)
(-0.00229644 -0.000794787 0.133002)
(-0.00418219 0.00303638 0.159225)
(0.00464928 0.00223978 0.15113)
(0.00555586 -0.00168015 0.128067)
(0.00376694 -0.00345223 0.138363)
(0.00180815 0.00349281 0.135876)
(0.0044484 0.0045217 0.16365)
(0.00515953 -0.00732836 0.15349)
(0.00294024 0.00254908 0.129108)
(0.00416739 0.00310175 0.119742)
(0.00468755 0.0055466 0.13209)
(0.00387175 -0.0020898 0.160366)
(0.00124383 0.00608064 0.125409)
(-0.00490254 0.00353563 0.134084)
(-0.00309651 0.002543 0.12313)
(0.001799 0.00261702 0.132954)
(-0.00126129 0.0026299 0.291391)
(-0.0031203 0.00689002 0.296157)
(0.00232756 0.00442355 0.28334)
(0.0024482 0.00317802 0.278374)
(0.00371478 -0.00123731 0.27463)
(0.0014501 0.00620082 0.268998)
(2.51211e-05 0.00436221 0.290957)
(0.000957006 -0.00390264 0.302345)
(0.00440619 0.00306774 0.256915)
(0.00455778 0.000668457 0.2407)
(-0.000309349 0.000767038 0.272869)
(9.44264e-05 -0.000740416 0.285161)
(0.00162654 0.00617025 0.282189)
(-0.00427078 0.00182778 0.284973)
(-0.0049475 0.000392375 0.276346)
(0.000677469 0.00466152 0.26918)
(-0.00143707 0.00369067 0.138494)
(-0.00483506 0.00615511 0.14985)
(-0.002559 0.00697118 0.12654)
(-0.000918865 0.00290934 0.148578)
(0.00471402 0.000638513 0.135577)
(0.000494412 0.00605724 0.143841)
(-0.00624382 0.00402444 0.164137)
(-0.00406782 -0.00196881 0.155192)
(0.00721942 0.00112051 0.108815)
(0.00104114 -0.00262721 0.122845)
(-0.00656368 -0.00393278 0.129901)
(-0.000186411 0.000451891 0.13967)
(-0.0011694 0.00144487 0.139505)
(-0.00728845 -0.00178814 0.134129)
(-0.00637025 -0.00118963 0.118915)
(-0.0016962 0.0033683 0.119061)
(-0.00374986 0.00404112 0.301629)
(-0.00846098 0.00352381 0.297548)
(-0.00711971 0.00388929 0.274111)
(-0.00311075 0.000456473 0.298687)
(0.000194013 0.0033049 0.268283)
(-0.00229242 0.00316082 0.283129)
(-0.00456588 0.000511281 0.305948)
(-0.00242272 -0.000346669 0.285021)
(0.00145632 0.00238736 0.259679)
(-0.00444398 0.000624784 0.276566)
(-0.00558417 -0.00133477 0.296523)
(0.00128703 0.00264125 0.272131)
(-0.00479142 0.00173601 0.286972)
(-0.00920794 0.00208537 0.278853)
(-0.00447605 0.00366861 0.253145)
(-0.00239341 0.00246694 0.252285)
(-0.00636711 0.0049423 0.147829)
(-0.0085547 0.00410987 0.147045)
(-0.00526448 -0.00114216 0.132857)
(-0.00413201 -0.0033755 0.142229)
(-0.003357 0.00438934 0.127406)
(-0.00430863 0.0033525 0.14733)
(-0.00061746 -0.00128413 0.171824)
(0.000950464 -0.00379993 0.14379)
(-0.000327076 0.00505883 0.124084)
(-0.00494774 0.00199371 0.122456)
(-0.00510871 0.00201452 0.12839)
(-0.000109546 0.00211803 0.118898)
(-0.0105229 0.00680036 0.137957)
(-0.0106652 0.00273081 0.128773)
(-0.002731 0.00447883 0.105308)
(-0.00416613 0.00245968 0.112186)
(-0.00688945 0.006138 0.308671)
(-0.00564572 0.0055052 0.302266)
(-0.00222064 -0.0010025 0.285867)
(-0.0044953 -0.00458358 0.306742)
(-0.00486682 0.00254716 0.274386)
(-0.00383694 0.00410145 0.280987)
(0.000210249 0.00235855 0.288456)
(-0.00168337 -0.00422188 0.283096)
(-0.00334027 0.00012254 0.26717)
(-0.000451647 0.00218197 0.287164)
(-0.00149974 0.00131785 0.292625)
(-0.00384246 -0.000517752 0.250644)
(-0.0085792 0.00606253 0.298595)
(-0.0045325 0.0023126 0.2576)
(-0.00179439 0.000219027 0.241772)
(-0.00687183 -0.000618609 0.274857)
(-0.00571865 0.00544706 0.155972)
(-0.00174422 0.00172472 0.137194)
(0.000108833 -0.00154446 0.129338)
(-0.00583027 -0.00177694 0.152996)
(-0.00814857 -0.0011569 0.134116)
(-0.00320175 -0.000420572 0.139465)
(-0.000644023 -0.000899223 0.160139)
(-0.0059517 -0.0013729 0.148127)
(-0.00819518 -0.00279927 0.119354)
(0.00311844 -0.00275131 0.115442)
(0.00427215 -0.00188903 0.136749)
(-0.00685855 -0.0044438 0.112252)
(-0.00453179 0.00606686 0.13593)
(0.00189469 0.000732203 0.114406)
(-0.000439943 -0.000217854 0.108121)
(-0.00753257 -0.00387684 0.131849)
(-0.00254599 0.00146127 0.311054)
(0.00179078 -0.000678313 0.294989)
(-0.000245597 -0.00260502 0.296452)
(-0.00509161 -0.0033294 0.309993)
(-0.00546903 -0.00253572 0.280807)
(-0.00110726 -0.0044947 0.28738)
(7.98018e-05 -0.00185276 0.285671)
(-0.00446593 0.000396338 0.292216)
(-0.00806633 -0.00147166 0.233913)
(0.00280322 -0.00130342 0.28076)
(0.00727537 -0.000342447 0.303418)
(-0.00332804 -0.000536513 0.282495)
(-0.00276714 0.00386158 0.274663)
(0.0043682 0.003334 0.239858)
(0.0010645 0.000454574 0.250406)
(-0.0067008 -0.0030393 0.270039)
)
;

boundaryField
{
    bottom
    {
        type            cyclic;
    }
    top
    {
        type            cyclic;
    }
    lr1
    {
        type            cyclic;
    }
    lr2
    {
        type            cyclic;
    }
    vh1
    {
        type            cyclic;
    }
    vh2
    {
        type            cyclic;
    }
}


// ************************************************************************* //
