/*--------------------------------*- C++ -*----------------------------------*\
  =========                 |
  \\      /  F ield         | OpenFOAM: The Open Source CFD Toolbox
   \\    /   O peration     | Website:  https://openfoam.org
    \\  /    A nd           | Version:  6
     \\/     M anipulation  |
\*---------------------------------------------------------------------------*/
FoamFile
{
    version     2.0;
    format      ascii;
    class       volVectorField;
    location    "2.74";
    object      U.particlesMean;
}
// * * * * * * * * * * * * * * * * * * * * * * * * * * * * * * * * * * * * * //

dimensions      [0 1 -1 0 0 0 0];

internalField   nonuniform List<vector> 
256
(
(-0.000917254 -0.000552745 -0.0854338)
(0.00118756 -0.00167327 -0.0976163)
(-0.00194869 -0.00193697 -0.108805)
(-0.00398732 -0.00328617 -0.0847169)
(-0.00167513 0.000477913 -0.104107)
(-0.00254612 -0.00293829 -0.0940511)
(-0.00170581 -0.00299225 -0.0636352)
(-0.00178641 -0.00131817 -0.0794204)
(-0.00143434 0.00141787 -0.125122)
(-0.00127609 0.00109949 -0.126187)
(0.00267046 0.00188117 -0.0829417)
(0.00209534 0.00205359 -0.100121)
(0.00172777 0.000706231 -0.117835)
(0.00250455 0.00125197 -0.123522)
(-0.000554979 0.00289492 -0.120808)
(-0.00201394 -0.000725719 -0.103504)
(-0.00102074 -0.00156817 0.0627576)
(0.000112002 -0.00193203 0.0587526)
(-0.00150773 -0.00103327 0.0667715)
(-0.00188568 -0.00159657 0.0643264)
(-0.00142737 0.00210923 0.0518843)
(-0.00212368 -0.00103875 0.0504316)
(0.000858187 -0.00121683 0.0576841)
(0.000364747 0.000514505 0.0541952)
(0.000789997 0.00193757 0.0106726)
(-0.000936754 6.26724e-05 0.030316)
(0.00196269 0.00167503 0.0480966)
(0.00355103 0.00187441 0.0580988)
(0.00286812 -0.00113058 0.0253396)
(0.00154796 -0.00236643 0.0196943)
(0.000119444 0.000864719 0.0146416)
(0.000592198 -0.000646993 0.0328631)
(-0.00269419 -0.000645849 -0.0773685)
(0.000388992 -0.00172664 -0.0825593)
(0.000975975 -0.00205312 -0.0881614)
(-0.00203505 -0.000652929 -0.0841771)
(-0.000913472 0.00378371 -0.0955438)
(0.000176716 0.0028887 -0.0894184)
(0.00133784 0.00137331 -0.0668128)
(-0.00195255 0.00120151 -0.0764542)
(0.00259427 -0.000991979 -0.124773)
(0.000947315 -0.00104212 -0.119732)
(0.00101147 0.000619255 -0.0898012)
(0.00179339 0.00231311 -0.0820872)
(0.000856211 -0.0029584 -0.113985)
(0.00382708 -0.0056264 -0.117491)
(0.00135818 -0.00235074 -0.12219)
(-0.00216468 0.00109044 -0.104687)
(-0.00122819 -0.00119221 0.0504405)
(0.00263834 -0.000780723 0.0414848)
(0.000882608 -0.0036005 0.0621447)
(-0.00193292 -0.00041351 0.0657257)
(0.00180811 0.00305159 0.0489075)
(0.00248883 0.00385735 0.0491514)
(0.000131545 -0.000173487 0.0708531)
(-0.00216532 0.000747807 0.0595424)
(0.00365912 0.000827491 0.0266091)
(0.0021712 -0.000444088 0.0369978)
(-0.00193778 0.0008022 0.0498239)
(-6.40931e-05 0.0011026 0.0660441)
(0.00122261 -0.00330539 0.0144757)
(0.00392961 -0.00404981 0.0188198)
(6.2332e-05 -0.00130483 0.0264429)
(-0.00188843 0.0015664 0.0416544)
(0.00333822 -0.00135739 -0.089621)
(0.00447967 0.000104155 -0.0955803)
(-0.00076496 -0.00320281 -0.0858153)
(-0.000921583 0.00138317 -0.0759558)
(0.00352657 0.00282198 -0.098654)
(0.00518218 0.00230581 -0.0983456)
(0.00160647 -2.54708e-05 -0.0650176)
(3.04352e-06 0.00336391 -0.0785736)
(0.00163836 0.00106998 -0.111437)
(0.00292619 -0.00136522 -0.106414)
(-0.000890785 -0.000793518 -0.0921536)
(-0.00101169 -0.000410419 -0.0828309)
(0.00306346 -0.00338444 -0.119118)
(0.00390222 -0.00254365 -0.115644)
(-0.000605132 -0.00155563 -0.115842)
(0.000584053 -0.00168954 -0.097833)
(0.00577191 -0.00109296 0.0363947)
(0.00324104 0.00035316 0.0388885)
(-0.00193979 -0.00140532 0.0654222)
(0.00114772 0.002064 0.0569417)
(0.00358923 0.00189284 0.0528704)
(0.00493133 -0.000305965 0.0542965)
(0.000830555 -0.00026899 0.0721893)
(0.00089324 0.00387742 0.0651299)
(0.00143889 0.000889668 0.0421743)
(0.0011407 -0.000319399 0.0488116)
(-0.00044315 -0.000826754 0.0589144)
(0.00147269 -0.000838636 0.0804567)
(0.0037603 -0.000756702 0.0275823)
(0.00143811 0.000252474 0.0280339)
(-0.00155997 -0.000128683 0.0390169)
(0.00194804 -0.00172715 0.0470632)
(0.00492519 -0.00137129 -0.109308)
(-0.000994184 -0.000607323 -0.108305)
(-0.00172578 -0.00131803 -0.097729)
(0.00356804 0.00207216 -0.0927703)
(0.00100845 -0.00251884 -0.104687)
(0.00216081 -0.00265918 -0.0900583)
(0.00276055 -0.000698247 -0.0619814)
(0.00228287 0.000202118 -0.0845178)
(0.00326302 0.000941812 -0.112201)
(3.79478e-05 0.0027811 -0.102687)
(0.00185999 0.00170286 -0.092879)
(0.00513417 -0.000983422 -0.0717893)
(0.00362213 0.00151627 -0.11966)
(-0.000136072 0.00357275 -0.109964)
(-0.000473262 0.000962241 -0.11761)
(0.00193208 0.00179281 -0.0995793)
(0.00182031 -0.00121861 0.0432477)
(-0.00177134 -0.000759136 0.0581316)
(0.00216958 -0.0020861 0.0596769)
(0.00431837 0.000814091 0.040149)
(0.0015325 -0.00351421 0.0458546)
(0.0016521 -0.00198019 0.0315252)
(0.00480591 -0.00116965 0.0661801)
(0.00406966 -0.00245353 0.0622572)
(0.00338502 -0.000273535 0.0398015)
(0.000768359 0.00177034 0.0229352)
(0.00455122 0.00219658 0.0406054)
(0.00633775 -0.00105762 0.0759716)
(0.00155789 0.00223642 0.0347453)
(-0.00222601 0.00260141 0.0260665)
(0.00020926 0.000641541 0.0425624)
(0.00127826 0.00237205 0.0475317)
(-0.00160042 -0.000492428 -0.0998001)
(-0.00248454 0.0015389 -0.0927933)
(0.00381845 -0.00067718 -0.0901968)
(0.00369804 0.000739949 -0.0955133)
(0.00288651 -0.00246796 -0.0936887)
(0.000849832 0.00120775 -0.0974041)
(0.00235219 -0.000131248 -0.0652275)
(0.00315932 -0.00326741 -0.0847336)
(0.00293485 0.000425738 -0.108272)
(0.0031126 0.00033124 -0.107284)
(0.00358454 0.00147824 -0.0983407)
(0.00382561 -0.000795238 -0.0641247)
(0.000204436 0.00332645 -0.108654)
(-0.00422512 0.00156761 -0.116422)
(-0.00201977 0.00025335 -0.117122)
(0.00120965 0.00238479 -0.0962765)
(-0.000862421 0.00260677 0.0614348)
(-0.00214653 0.00486001 0.047794)
(0.00165294 0.00229447 0.0553844)
(0.00123088 0.00216956 0.0493021)
(0.00314838 -0.000671187 0.0437686)
(0.000166653 0.00328336 0.035722)
(-0.00121813 0.000874352 0.064405)
(0.000459894 -0.00296651 0.0671696)
(0.00372667 0.000470258 0.0247382)
(0.00299162 -0.00211682 0.00799099)
(-0.000357444 -0.00184029 0.0424204)
(0.000943459 -0.000870687 0.0605142)
(-0.000283989 0.00298839 0.0520075)
(-0.00332851 -3.58505e-05 0.0389019)
(-0.00258275 -0.000817562 0.0380881)
(0.000399449 0.00264301 0.0486174)
(-0.000827867 0.00350964 -0.0961142)
(-0.00430235 0.00487111 -0.101725)
(-0.00194228 0.00405259 -0.0975271)
(-0.000167614 0.00153305 -0.0855425)
(0.00304639 -2.65488e-05 -0.0968192)
(-0.00127723 0.00380966 -0.094965)
(-0.00512238 0.0010722 -0.070279)
(-0.00280967 -0.00139558 -0.0795698)
(0.00456859 -3.60994e-05 -0.123287)
(0.000339435 -0.00343389 -0.120786)
(-0.00424409 -0.00365403 -0.108939)
(0.000203751 0.00167111 -0.089122)
(-0.00148797 0.000776115 -0.0932492)
(-0.004821 -0.00167022 -0.111589)
(-0.002355 -0.00091607 -0.113932)
(-0.000345727 0.00274912 -0.0979069)
(-0.0014113 0.00331347 0.0658603)
(-0.00664524 0.00332165 0.0483358)
(-0.00420148 0.00184166 0.0487504)
(0.000283403 0.000881406 0.0655311)
(-0.000480393 0.00115089 0.0408909)
(-0.0033552 0.00181889 0.0486533)
(-0.00419245 -0.00123385 0.0776342)
(-0.00164525 -6.19814e-05 0.0590435)
(0.00109225 -0.00036456 0.023555)
(-0.00195076 -0.00218018 0.0364524)
(-0.00323333 -0.00280403 0.0588352)
(0.000668352 0.00224189 0.0531971)
(-0.00294617 0.000439712 0.0545992)
(-0.0059994 0.000445733 0.0399746)
(-0.000986582 0.00187309 0.0278047)
(-7.39253e-05 0.00220435 0.0347952)
(-0.00396297 0.0017357 -0.0981595)
(-0.00698804 0.00211692 -0.108322)
(-0.00350894 -0.00159589 -0.103206)
(-0.00160443 -0.00189198 -0.0964386)
(-0.00398542 0.00209343 -0.103333)
(-0.00423635 0.00150305 -0.0829357)
(-0.00190256 -0.0024993 -0.0503953)
(-0.00102365 -0.00234332 -0.0804189)
(-0.000376438 -0.0001753 -0.122765)
(-0.00222522 -0.000963216 -0.119804)
(-0.00272972 -0.000877925 -0.112311)
(-0.000584874 0.000821578 -0.0950765)
(-0.0042668 0.000567386 -0.104713)
(-0.00473258 -0.000314647 -0.109412)
(-0.000400963 0.00231463 -0.120678)
(-0.00147914 0.00116446 -0.117032)
(-0.00366356 0.00326474 0.0582439)
(-0.00439493 0.00116048 0.0543537)
(-0.00192572 -0.00203849 0.048551)
(-0.002358 -0.00259992 0.0698281)
(-0.00519774 0.00145982 0.043419)
(-0.00408742 6.69008e-05 0.0560756)
(-0.000967973 -8.36717e-05 0.0725153)
(-0.00296745 -0.00270846 0.0593862)
(-0.00285534 -0.00137381 0.0231687)
(-7.6734e-06 0.000878536 0.0444567)
(-0.000495649 0.000233156 0.0547794)
(-0.00277499 -0.000525264 0.0369056)
(-0.0032757 0.00261954 0.055888)
(-0.000826144 0.000652658 0.025932)
(-0.000143095 0.000447434 0.0108691)
(-0.00364017 -0.000228769 0.040362)
(-0.00309737 0.00355819 -0.0957005)
(-0.00237001 6.48919e-05 -0.105138)
(-0.000460225 -0.00165532 -0.114111)
(-0.00316978 -0.00111181 -0.0918867)
(-0.00707775 0.000631332 -0.101353)
(-0.00287461 -0.00051345 -0.0943352)
(-0.000102834 -0.00104351 -0.0625531)
(-0.00468016 -0.00108747 -0.0837776)
(-0.00495779 -0.00106784 -0.115233)
(0.00111244 -6.07576e-05 -0.131427)
(0.00307548 -0.00034757 -0.109915)
(-0.0027058 -0.00213595 -0.113044)
(-0.00118389 0.00402552 -0.102793)
(0.00216443 0.00175324 -0.11424)
(-0.000204031 0.00136193 -0.129579)
(-0.00420653 -0.00128071 -0.110473)
(-0.00148483 0.000940954 0.0691798)
(0.000501775 -0.000904108 0.0609561)
(-0.00115512 -0.0027317 0.0544436)
(-0.00361599 -0.00292428 0.0671546)
(-0.00497611 0.000175895 0.052692)
(-0.00190354 -0.00201959 0.0529698)
(-0.000146442 -0.00160128 0.0620274)
(-0.00345207 -0.000425069 0.0612085)
(-0.00464751 0.000234423 0.0126507)
(0.0013541 0.00113824 0.0524432)
(0.00446114 0.00100485 0.061288)
(-0.0012902 6.85257e-06 0.0510042)
(-0.000501844 0.00235872 0.0465237)
(0.00330507 0.00311578 0.0139991)
(0.000315472 0.00140701 0.0138581)
(-0.00411466 -0.0013008 0.0300518)
)
;

boundaryField
{
    bottom
    {
        type            cyclic;
    }
    top
    {
        type            cyclic;
    }
    lr1
    {
        type            cyclic;
    }
    lr2
    {
        type            cyclic;
    }
    vh1
    {
        type            cyclic;
    }
    vh2
    {
        type            cyclic;
    }
}


// ************************************************************************* //
