/*--------------------------------*- C++ -*----------------------------------*\
  =========                 |
  \\      /  F ield         | OpenFOAM: The Open Source CFD Toolbox
   \\    /   O peration     | Website:  https://openfoam.org
    \\  /    A nd           | Version:  6
     \\/     M anipulation  |
\*---------------------------------------------------------------------------*/
FoamFile
{
    version     2.0;
    format      ascii;
    class       volVectorField;
    location    "2.74";
    object      U.particles;
}
// * * * * * * * * * * * * * * * * * * * * * * * * * * * * * * * * * * * * * //

dimensions      [0 1 -1 0 0 0 0];

internalField   nonuniform List<vector> 
256
(
(0.00400624 0.0293513 -0.224995)
(0.0220124 0.038079 -0.305819)
(-0.00757607 0.0315213 -0.226123)
(-0.0212907 0.0266595 -0.172265)
(0.00838074 -0.0113424 -0.153188)
(0.00593765 -0.00389185 -0.214319)
(-0.0171942 -0.00660734 -0.147826)
(-0.0218946 -0.00136766 -0.0632458)
(0.0104054 -0.0294411 -0.199257)
(0.0142711 -0.0324184 -0.24539)
(-0.0145827 -0.0336627 -0.149228)
(-0.0240816 -0.0277663 -0.0134482)
(0.00543128 0.00823125 -0.288923)
(0.0265692 0.00268448 -0.157658)
(-0.00823646 0.00812882 -0.267052)
(-0.0248409 0.00221518 -0.185925)
(-0.0053915 0.0260655 -0.0520568)
(-0.00251154 0.0445173 0.213841)
(0.00278721 0.0307038 -0.0121815)
(-4.41788e-06 0.0289026 0.085816)
(0.00105143 -0.0170565 0.0313178)
(-0.00381498 -0.00342638 -0.0742185)
(0.0017576 -0.0134491 0.0557303)
(-0.0049078 -0.0134397 0.0742791)
(-0.00217501 -0.0237791 -0.0975983)
(-0.00426956 -0.0322242 0.105877)
(0.0109033 -0.0340486 -0.00868243)
(-0.00236691 -0.032034 0.0508074)
(-0.000688281 0.0188939 -0.0148464)
(0.0132736 0.0161215 0.196801)
(0.00420225 0.00980876 0.0814961)
(0.0046402 0.00781923 0.0797696)
(-0.0124357 0.0173156 -0.157847)
(-0.0135933 0.0434741 -0.0993063)
(0.0124511 0.0225592 -0.16525)
(0.0104029 0.0201056 -0.102649)
(0.00643202 -0.00284622 -0.0858128)
(-0.00758029 0.00827452 -0.186143)
(0.00117429 -0.000218305 -0.0767306)
(0.00461068 -0.00245457 0.00485097)
(-0.00985233 -0.0207885 -0.159741)
(-0.0133892 -0.0296165 -0.162097)
(0.025012 -0.0197192 -0.134098)
(0.0165205 -0.0265819 -0.0689205)
(-0.00532104 0.00226855 -0.179797)
(-0.0069831 0.0132467 -0.0533377)
(0.012366 -9.93858e-05 -0.179612)
(0.0195353 -0.00604388 -0.149302)
(-0.0082303 0.0220578 0.150669)
(-0.0197929 0.0377945 0.175928)
(0.00943486 0.0292966 0.126068)
(0.015752 0.00338652 -0.00658772)
(0.0185579 0.00493944 0.0879845)
(-0.00800309 0.0206755 0.104993)
(-0.0059592 0.00951187 0.0860721)
(0.0114515 0.00538272 0.0142723)
(0.00481613 -0.0171292 0.0992805)
(-0.00960344 -0.0186179 0.0336858)
(0.0113009 -0.0188326 0.0685747)
(0.0140373 -0.00706791 0.025959)
(-0.0148761 -0.00715279 0.158298)
(-0.0212638 0.00149421 0.174901)
(0.0117358 -0.00598604 0.0883851)
(0.0168859 -0.013487 0.0459515)
(-0.0195676 0.0242236 0.0724046)
(-0.026115 0.0364478 -0.020783)
(0.0146251 0.0219376 -0.0643678)
(0.0195926 0.0159959 -0.191934)
(0.00590615 0.00491878 0.0489323)
(-0.0138267 0.0224016 0.0257486)
(0.0102774 0.0170642 0.0484807)
(0.0233642 0.00164839 -0.195191)
(-0.00456814 -0.0175288 -0.0115855)
(-0.0113527 -0.00833308 -0.120258)
(0.0148797 -0.0114431 -0.00221133)
(0.0175092 -0.0239656 -0.0377897)
(-0.0176097 -0.0116279 0.0341832)
(-0.0265709 -0.00400556 -0.0195182)
(0.00567855 -0.0130217 -0.0915982)
(0.0174739 -0.00964686 -0.0824813)
(-0.0250985 0.01681 0.143269)
(-0.03082 0.0259216 0.0881063)
(0.0102361 0.0052347 -0.012587)
(0.0145475 0.0127789 0.0561501)
(-0.00641434 0.000675296 0.147447)
(-0.0223576 0.0154952 0.122981)
(0.0169774 0.0166542 0.0914967)
(0.0251364 -0.0105632 0.0708398)
(-0.00799698 -0.0123636 0.115151)
(-0.0098046 0.00245822 -0.127419)
(0.0145783 -0.00357524 0.104452)
(0.0200404 -0.0233059 0.0603055)
(-0.0182546 -0.00654168 0.150516)
(-0.0287331 0.00103523 0.180057)
(0.00885329 -0.0151856 0.0684011)
(0.0209169 0.00387636 0.00352517)
(-0.025523 0.00946378 0.0744068)
(-0.00944592 0.0133311 -0.075275)
(0.016567 0.00180849 -0.171333)
(-0.0103024 -0.00691174 -0.206172)
(-0.0105166 -0.00865741 0.0681695)
(-0.00714919 0.0187232 -0.047087)
(0.0229661 -0.00942102 -0.0745584)
(0.00857517 -0.0259316 -0.129238)
(0.00671709 -0.0124402 0.114104)
(-0.00262433 0.00888151 -0.308149)
(0.000100074 -0.00773954 0.0805665)
(0.00406295 -0.0125674 -0.0872494)
(-0.02413 0.00175898 0.147899)
(-0.0128639 -0.0071985 0.0898435)
(0.0230244 0.00500967 -0.102125)
(0.00232074 0.00940496 -0.171942)
(-0.0152353 -0.011926 0.139789)
(0.0142434 -0.0168624 0.0899449)
(0.0108272 -0.017367 -0.0380106)
(-0.00987938 -0.0108486 0.208323)
(-0.00275126 -0.00546012 0.173059)
(0.0141549 0.0251967 -0.0311643)
(0.0136062 0.00761192 0.0450483)
(0.000800993 -0.00445965 0.175707)
(0.0293982 0.00287663 0.131497)
(-0.000753705 0.0146964 -0.0130321)
(-0.0255939 0.000223071 0.101855)
(0.00420899 -0.0022289 0.127174)
(-0.00325255 -0.00810589 0.190454)
(0.00429916 -0.0231318 0.129236)
(0.000362985 -0.0207933 0.0175637)
(0.000607266 -0.00823037 0.1202)
(0.0158832 -0.0345144 0.0554936)
(0.00469569 -0.0038278 -0.193554)
(-0.016909 -0.0324231 -0.170614)
(-0.00176932 -0.0201623 -0.0346592)
(0.0424422 0.00278413 -0.166211)
(0.0145165 0.0390324 -0.420979)
(-0.0441873 0.0274407 -0.216235)
(-0.00872242 0.0315294 -0.0908713)
(0.0557248 0.0283669 -0.208704)
(-0.00158147 0.00588179 -0.33939)
(-0.061373 0.00261145 -0.248907)
(-0.00332769 0.0261482 -0.208885)
(0.0268745 -0.0104062 0.0852309)
(-0.00335107 -0.0511027 -0.073417)
(-0.0323274 -0.0532753 -0.161195)
(-0.00308069 -0.0321009 -0.0924265)
(0.0196919 -0.0293656 0.167676)
(0.00444584 -0.011055 -0.0144477)
(-0.015354 -0.0378117 -0.0798181)
(-0.00836599 -0.033117 0.130008)
(0.0196162 0.00590378 -0.000984661)
(0.0105084 0.00277689 0.11275)
(-0.0246587 -0.00413969 -0.122031)
(-0.0171505 0.0133934 0.0213971)
(0.0142277 0.0354952 0.122392)
(0.00614665 0.00414663 0.480387)
(-0.0278979 0.0131486 0.152732)
(-0.0153427 0.0412283 -0.0284669)
(0.0146543 -0.0101676 0.136692)
(0.00133737 -0.0280187 0.140561)
(-0.00928841 -0.0236298 -0.0159752)
(-0.0154261 -0.00616455 0.158492)
(0.0028686 -0.0335052 -0.0470101)
(-0.00122504 -0.021528 -0.23579)
(-0.00129637 -0.0348263 -0.237627)
(-0.0103395 -0.0356268 -0.223607)
(-0.0169331 -0.00367574 -0.225143)
(-0.00772536 -0.0356971 -0.277735)
(0.00641366 -0.0218484 -0.256005)
(-0.00627937 -0.00367602 -0.241823)
(-0.0348088 0.0411269 -0.28199)
(-0.00415127 0.0222474 -0.0452347)
(0.0192137 0.0339839 -0.166977)
(0.00244073 0.0330117 -0.235384)
(-0.016737 0.0173314 0.0214869)
(-0.00562485 0.0368186 0.0296087)
(0.0119825 0.0167067 -0.142182)
(-0.0118604 0.0208072 -0.15223)
(-0.00306037 -0.0302861 0.118448)
(-0.00222209 -0.0132824 0.103558)
(0.00648933 -0.0158805 -0.141139)
(-0.00700614 -0.0270052 0.0953114)
(-0.0209808 0.00167499 -0.0682144)
(-0.0153439 -0.0259453 0.202968)
(0.0162508 -0.00915571 -0.249062)
(0.00369872 0.00310608 0.00576698)
(-0.0463845 0.0118432 0.29679)
(-0.0230569 0.0263518 0.31133)
(0.0272181 0.0239225 0.0531968)
(0.0136423 0.0183548 0.0161443)
(-0.0239747 0.0154452 0.192048)
(-0.0101397 0.0543879 0.24347)
(0.0110578 0.0231071 0.141526)
(-0.00969446 0.0138649 0.219802)
(-0.0283162 0.00136385 -0.137739)
(-0.0105123 -0.0168713 -0.157084)
(0.00697895 0.00146925 -0.231415)
(-0.00121241 -0.0131911 -0.201747)
(-0.0206045 -0.00104185 -0.174161)
(-0.0110716 -0.0103061 -0.1495)
(0.0146179 -0.00603643 -0.275765)
(0.00441834 0.00608942 -0.167155)
(-0.0470684 -0.0063876 -0.141685)
(-0.0238843 0.0234571 -0.0703496)
(0.0187842 0.00116778 -0.171011)
(0.0129179 0.00924428 -0.20846)
(-0.0245018 0.0175935 0.0920155)
(-0.0134219 0.0427952 0.0112856)
(0.00933612 0.0167228 -0.0688937)
(-0.00355084 0.00543832 -0.0841639)
(-0.00601012 0.0123614 0.157409)
(0.00625071 -0.00360727 0.0632189)
(-0.0113077 0.014408 -0.114296)
(-0.00949073 0.0135186 0.152467)
(-0.00666599 -0.000190946 -0.0302708)
(0.00566413 -0.000262806 -0.0303692)
(0.00244798 0.0047987 -0.211195)
(-0.00552212 0.00913414 -0.039238)
(-0.00257864 -0.0218012 0.197756)
(0.00589305 0.00847059 0.158097)
(-0.00841695 -0.0141829 -0.0760478)
(0.00706656 -0.0127845 0.166231)
(-0.0108961 0.0105676 0.177499)
(-0.0155845 0.0232005 0.139668)
(-0.0265885 -0.00445134 -0.0259181)
(-0.00190138 -0.00536755 0.207129)
(0.0263511 0.00674966 -0.166731)
(0.0217894 -0.00754779 -0.221388)
(-0.0238181 0.0183063 -0.219534)
(-0.0215293 0.0290251 -0.142733)
(0.00814206 -0.000762546 -0.147783)
(0.0128672 -0.00287839 -0.213221)
(-0.0274612 -0.00443274 -0.197615)
(-0.0206644 0.0115056 -0.128272)
(0.0288957 -0.0117956 -0.0962263)
(0.0203015 0.00730318 -0.197677)
(-0.0255374 -0.0201355 -0.162653)
(-0.0167474 -0.0352736 -0.10775)
(0.0435238 -0.00360606 -0.260318)
(-0.0033359 0.00730132 -0.303575)
(-0.0504962 -0.00603245 -0.226089)
(-0.0126369 -0.013865 -0.124122)
(0.01577 0.0166757 -0.0348526)
(0.0207321 0.0124724 0.0596521)
(-0.0158589 0.0248006 -0.128583)
(-0.0212898 0.0283824 0.0474614)
(0.0116491 0.000269796 -0.0643772)
(0.0107594 -0.00112066 -0.146751)
(-0.016799 0.000795468 -0.131604)
(-0.0189417 0.0184413 0.0399068)
(0.0215328 -0.0209359 -0.0401319)
(0.01693 -0.0130659 -0.0259173)
(-0.0220459 -0.0253585 -0.0648982)
(-0.0209995 -0.0302177 0.167557)
(0.0291936 -0.00818554 0.255697)
(0.0134892 -0.00550571 0.33997)
(-0.0310644 0.000922823 -0.0755201)
(-0.027385 -0.0135658 0.107843)
)
;

boundaryField
{
    bottom
    {
        type            cyclic;
    }
    top
    {
        type            cyclic;
    }
    lr1
    {
        type            cyclic;
    }
    lr2
    {
        type            cyclic;
    }
    vh1
    {
        type            cyclic;
    }
    vh2
    {
        type            cyclic;
    }
}


// ************************************************************************* //
