/*--------------------------------*- C++ -*----------------------------------*\
  =========                 |
  \\      /  F ield         | OpenFOAM: The Open Source CFD Toolbox
   \\    /   O peration     | Website:  https://openfoam.org
    \\  /    A nd           | Version:  6
     \\/     M anipulation  |
\*---------------------------------------------------------------------------*/
FoamFile
{
    version     2.0;
    format      ascii;
    class       volVectorField;
    location    "2.74";
    object      Ur;
}
// * * * * * * * * * * * * * * * * * * * * * * * * * * * * * * * * * * * * * //

dimensions      [0 1 -1 0 0 0 0];

internalField   nonuniform List<vector> 
256
(
(-0.00888632 -0.0235494 -0.258669)
(-0.0155443 -0.0323183 -0.625748)
(0.00223278 0.000867491 -0.300722)
(0.00787367 0.00758495 -0.172957)
(-0.0118142 -0.00682431 -0.154047)
(-0.0075106 -0.00169048 -0.306986)
(0.0130311 -0.000506271 -0.14566)
(0.00854074 0.0104838 -0.102894)
(-0.00948858 0.00827812 -0.160104)
(-0.0146946 0.0251401 -0.575578)
(0.011288 -0.0105932 -0.197053)
(0.0155434 -0.00519675 -0.113935)
(0.0177487 -0.00877435 -0.323935)
(-0.0462395 -0.00506018 -0.514386)
(-0.0391813 -0.009109 -0.471995)
(0.02546 -0.00821929 -0.234212)
(-0.00157609 -0.0211167 -0.254641)
(0.0064067 -0.00722294 -0.517064)
(0.0178288 -0.00541021 -0.292612)
(0.00855136 -0.006255 -0.129933)
(0.00295827 -0.0378857 -0.130515)
(0.0102873 0.00164667 -0.332497)
(0.0127231 -0.0137944 -0.106635)
(0.00506013 -0.0117009 -0.0613278)
(-0.00138742 -0.0559703 -0.180886)
(-0.00143629 -0.00695442 -0.492903)
(0.00931972 -0.0316616 -0.189415)
(0.00804502 -0.0352874 -0.088158)
(-0.00122987 -0.0382588 -0.253558)
(-0.00927773 -0.0157946 -0.32081)
(0.00591191 -0.0239845 -0.470291)
(0.0134787 -0.0311865 -0.205485)
(0.00494888 0.00897056 -0.258908)
(0.0187754 0.012187 -0.471332)
(0.0206201 0.00469738 -0.275116)
(0.00589978 0.00600287 -0.0848739)
(-0.00116018 -0.0178784 -0.0936369)
(0.0124744 -0.00159444 -0.344607)
(0.0140401 -0.00487737 -0.0798527)
(0.000501702 -0.00605347 -0.0346048)
(0.0271726 -0.0442397 -0.155348)
(0.0243632 -0.0189258 -0.4011)
(0.00318187 -0.0135154 -0.178436)
(0.00429624 -0.0130447 -0.0629203)
(0.00781012 -0.0164371 -0.229867)
(0.0236833 -0.00525348 -0.323662)
(0.0261887 -0.00442527 -0.472482)
(0.00917034 -0.00118556 -0.173383)
(0.0133282 0.0105068 -0.192756)
(0.0248027 0.0292868 -0.365889)
(0.0142105 0.00337901 -0.19629)
(0.00205153 0.00839823 -0.103127)
(0.00274474 -0.00764358 -0.079674)
(0.0126597 -0.000688102 -0.264616)
(0.0122575 -0.00610124 -0.0874184)
(0.00241247 -0.0038639 -0.058888)
(0.0588117 -0.0166621 -0.119356)
(0.0376802 -0.0240546 -0.271315)
(0.011469 -0.00336191 -0.144474)
(0.0294414 -0.0106397 -0.088465)
(0.0285607 0.00137909 -0.205498)
(0.0446506 0.00518147 -0.363293)
(0.0448528 0.00616906 -0.420015)
(0.0269607 0.0017984 -0.168914)
(0.0210622 0.00396301 -0.138003)
(0.0155665 0.0192877 -0.275857)
(-0.00676734 -0.00227906 -0.107883)
(-0.00164562 -0.00229675 -0.132444)
(0.0185503 -0.00352363 -0.0995832)
(0.00799525 0.00809365 -0.175158)
(-0.0120053 -0.0068301 -0.082635)
(-0.00144735 0.00163177 -0.0842154)
(0.0297158 -0.00141764 -0.127094)
(0.00916868 -0.0167185 -0.180751)
(-0.0186227 0.00639857 -0.122641)
(0.00142933 0.00417059 -0.107306)
(0.0207684 0.00611523 -0.182808)
(0.0376695 -0.0063248 -0.423845)
(0.0182612 0.0109904 -0.328707)
(0.00177369 0.000264892 -0.155177)
(0.0427421 0.00111878 -0.159964)
(0.0235333 0.00346289 -0.253477)
(-0.00384059 -0.0019277 -0.132202)
(0.0145681 -0.00557898 -0.183191)
(0.0345943 0.000365604 -0.141248)
(0.0173023 0.00755273 -0.148367)
(-0.015901 -0.000768506 -0.0802834)
(0.000759396 0.0117333 -0.109941)
(0.028964 0.000749544 -0.181515)
(0.0111583 -0.00474858 -0.173853)
(-0.0212049 0.00775719 -0.14886)
(-0.00397796 0.0129476 -0.126141)
(0.0446122 0.00153361 -0.224103)
(0.045491 -0.00926494 -0.368674)
(-5.38636e-06 0.0063727 -0.233213)
(-0.00169893 -0.0044101 -0.195551)
(0.047887 -0.00515294 -0.197029)
(0.0152866 -0.00307339 -0.23435)
(-0.00128795 -0.0042019 -0.192551)
(0.0312601 0.00469067 -0.283901)
(0.039398 0.0128185 -0.179978)
(0.0148032 -0.011591 -0.132036)
(-0.0166391 0.0109577 -0.112266)
(0.00710521 0.0258539 -0.176202)
(-0.00668083 0.0111532 -0.160332)
(0.00418723 0.00822016 -0.259987)
(0.00861472 0.0141035 -0.115137)
(-0.00258575 0.0157554 -0.151154)
(0.0497694 -0.00700545 -0.21022)
(0.0333152 0.0168311 -0.238165)
(-0.00479937 -0.00125564 -0.172171)
(0.0098423 -0.00527327 -0.224398)
(0.0242731 0.00690954 -0.226026)
(0.00398205 0.0114036 -0.203599)
(0.00178467 0.00233175 -0.258835)
(0.0224761 0.00282225 -0.280101)
(0.0232286 0.00966784 -0.200578)
(0.00594898 -0.00184664 -0.212479)
(-0.00621702 0.00761338 -0.126109)
(0.0109199 0.0169296 -0.217058)
(-0.0305497 -5.21902e-05 -0.171655)
(-0.00438094 0.0364847 -0.470563)
(0.0258773 0.00111664 -0.15519)
(-0.000128538 0.00701553 -0.135616)
(-0.00545609 -0.00274928 -0.172244)
(-0.00425687 0.0497405 -0.228317)
(0.00363019 -0.00411774 -0.143588)
(0.00221533 -0.00691737 -0.222765)
(-0.0242527 0.0177642 -0.207793)
(-0.00400597 0.0117242 -0.20809)
(0.0173167 0.0102298 -0.255601)
(-0.00265919 0.0110757 -0.234257)
(-0.035031 0.000622991 -0.213693)
(-0.00710649 -0.00481566 -0.367639)
(0.0318654 -0.0200869 -0.156645)
(0.00409269 -0.0168177 -0.226365)
(-0.0518539 0.0434876 -0.321089)
(-0.0161075 0.0697909 -0.644885)
(0.0408935 0.0068291 -0.318203)
(0.00505857 -0.00665861 -0.14222)
(-0.040967 0.0607855 -0.149062)
(-0.0128002 0.0855054 -0.314109)
(0.0314679 0.037179 -0.151927)
(0.00337592 0.0212007 -0.186689)
(-0.0211619 0.00668317 -0.143575)
(-0.00622951 0.00073953 -0.246879)
(0.0160407 0.00278317 -0.198106)
(0.00121268 0.00761458 -0.202085)
(-0.0214233 -0.00812237 -0.211242)
(-0.00327385 0.0109115 -0.445191)
(0.0216656 -0.0166152 -0.192194)
(0.00350545 -0.0172542 -0.189392)
(-0.0217827 0.0188841 -0.39581)
(-0.0147558 0.0544301 -0.654052)
(0.0130383 0.0049478 -0.396226)
(0.00546842 0.00120776 -0.186963)
(-0.0187832 0.0336109 -0.170267)
(-0.0110837 0.0432739 -0.316219)
(0.0147511 0.0243685 -0.179348)
(0.00675821 0.0263035 -0.155709)
(-0.00505244 -0.00171219 -0.13694)
(-0.00651578 -0.0221442 -0.290479)
(0.00140883 -0.00561707 -0.22832)
(0.00280342 -0.00475324 -0.233017)
(0.00592905 -0.00926757 -0.184127)
(0.000244799 0.00483567 -0.438453)
(-0.00423932 -0.0104342 -0.197001)
(0.00139103 -0.00733974 -0.206373)
(0.0176804 -0.00771505 -0.370126)
(0.00963198 -0.0111496 -0.603044)
(-0.0138171 -0.0371684 -0.395568)
(-0.00610076 -0.001242 -0.214767)
(0.0045503 -0.000113563 -0.191023)
(-0.00796621 -0.0394836 -0.251058)
(-0.00997903 -0.03308 -0.212026)
(0.00249097 0.00142847 -0.208618)
(0.00522334 -0.00520864 -0.158975)
(-0.00615643 -0.0095848 -0.296317)
(-0.00662944 -0.0024126 -0.287687)
(0.00467401 -0.00539656 -0.239053)
(0.0162895 -0.000173131 -0.147358)
(0.00584759 0.0143993 -0.312444)
(-0.00894905 0.00269461 -0.172495)
(0.00153275 -0.00332719 -0.211134)
(0.0345755 -0.00257237 -0.264664)
(0.0117062 -0.0148118 -0.428718)
(-0.0223488 -0.0196176 -0.330658)
(0.000314958 -0.000158656 -0.244699)
(0.0159953 -0.00752018 -0.18553)
(-0.00399925 -0.0392354 -0.222763)
(-0.0172005 -0.0251735 -0.224091)
(0.00288644 -0.00224886 -0.240672)
(0.021003 -0.0105311 -0.190844)
(0.00507114 0.0198455 -0.307788)
(-0.018329 -0.00162829 -0.30121)
(-0.00234832 -0.00338625 -0.266312)
(0.0245516 0.0145616 -0.155477)
(0.0085332 0.0160215 -0.231522)
(-0.0172016 0.0105968 -0.152167)
(-0.00123284 0.00450043 -0.188975)
(0.0439741 0.00650663 -0.241045)
(0.014523 -0.0214203 -0.274567)
(-0.023976 -0.00562307 -0.259158)
(0.00474114 0.00312167 -0.302342)
(0.00757786 -0.0188497 -0.181652)
(-0.000962043 -0.0178322 -0.288086)
(-0.0049326 -0.0181188 -0.277643)
(0.00359376 -0.00486685 -0.267409)
(-0.00996704 -0.00263647 -0.214959)
(0.00160296 0.0225821 -0.357463)
(0.00461768 0.00136391 -0.266821)
(-0.00692596 -0.00346691 -0.288725)
(0.01119 0.0116902 -0.19057)
(0.0022376 0.00903768 -0.214998)
(-0.00543389 0.00432139 -0.135056)
(0.00337247 0.0071598 -0.212992)
(0.000601265 0.00675324 -0.202114)
(0.000706763 -0.016377 -0.276352)
(0.00408719 0.000195588 -0.202652)
(0.00391213 0.00929329 -0.309057)
(-0.0120817 -0.00749154 -0.194781)
(-0.00343167 -0.00313022 -0.46613)
(0.0131104 -0.00297161 -0.339135)
(0.00482109 -0.00153521 -0.278337)
(-0.0346353 0.027724 -0.226426)
(-0.00588696 0.0319656 -0.479188)
(0.0236413 0.0131056 -0.229199)
(-0.0051164 0.0133915 -0.253605)
(-0.00841361 0.0125436 -0.181597)
(-0.000172608 0.0102224 -0.203398)
(0.0121604 0.00412813 -0.131378)
(0.00398655 0.00479984 -0.220647)
(-0.0204037 -0.0204812 -0.150116)
(-0.00385757 -0.0255622 -0.407566)
(0.0235405 -0.00651226 -0.164312)
(0.00682275 -0.00866003 -0.274825)
(-0.0402321 -0.00525453 -0.286281)
(0.0107282 -0.00440172 -0.663731)
(0.0337851 0.00265823 -0.364218)
(-0.0179065 0.000174716 -0.257194)
(-0.0102657 0.00674213 -0.247742)
(-0.0164663 -0.00914506 -0.567878)
(-0.000682676 0.0131097 -0.251519)
(0.00525244 0.0409468 -0.201699)
(0.00349433 0.0156887 -0.169138)
(0.00332948 0.000571979 -0.269082)
(0.0188048 0.0128419 -0.129634)
(0.0188679 0.0353279 -0.161604)
(-0.00406374 0.00587978 -0.160014)
(-0.0069798 0.010307 -0.532606)
(0.00620405 0.00650636 -0.168681)
(0.00918035 0.0133948 -0.185338)
(-0.000837804 -0.00299466 -0.309581)
(-0.0158955 -0.000165277 -0.710972)
(-0.0116622 0.00735204 -0.396026)
(0.00401415 0.0194749 -0.221836)
)
;

boundaryField
{
    bottom
    {
        type            cyclic;
    }
    top
    {
        type            cyclic;
    }
    lr1
    {
        type            cyclic;
    }
    lr2
    {
        type            cyclic;
    }
    vh1
    {
        type            cyclic;
    }
    vh2
    {
        type            cyclic;
    }
}


// ************************************************************************* //
