/*--------------------------------*- C++ -*----------------------------------*\
  =========                 |
  \\      /  F ield         | OpenFOAM: The Open Source CFD Toolbox
   \\    /   O peration     | Website:  https://openfoam.org
    \\  /    A nd           | Version:  6
     \\/     M anipulation  |
\*---------------------------------------------------------------------------*/
FoamFile
{
    version     2.0;
    format      ascii;
    class       volScalarField;
    location    "2.74";
    object      xiGatS;
}
// * * * * * * * * * * * * * * * * * * * * * * * * * * * * * * * * * * * * * //

dimensions      [0 0 0 0 0 0 0];

internalField   nonuniform List<scalar> 
256
(
0.797462
0.937985
0.733545
0.971111
0.511812
0.648753
0.514683
0.577532
0.835047
0.748205
0.730808
0.484751
0.940171
1.60391
0.831618
0.902738
0.255591
0.624287
0.440469
0.647898
0.237602
0.201035
0.242454
1.35836
0.403572
0.345539
0.24836
0.473576
0.53972
1.30823
0.393896
0.547907
0.904977
0.907855
1.22099
1.01697
0.993666
0.519365
1.37944
1.05569
0.575156
0.472928
0.703252
1.00696
0.890311
0.714709
1.25791
0.701673
0.98698
0.88885
0.901603
0.727738
0.93594
0.756444
0.912839
0.874999
0.610552
0.925501
0.536056
0.500966
0.584662
1.16532
0.669231
0.418237
1.75588
1.00786
0.923784
1.01844
2
1.1037
1.45977
1.58499
1.295
0.925845
0.866198
1.55615
1.54787
1.32612
0.821122
0.832528
1.1922
0.977557
0.774817
0.669396
1.59336
0.984149
1.10216
0.988277
1.15255
1.01524
0.898495
0.803076
1.38563
1.23428
0.781929
0.652162
0.878663
1.00893
0.583335
0.520196
1.33963
1.24775
0.780625
0.676345
1.69509
1.31956
1.38759
1.03049
1.17222
0.975378
0.848818
0.645373
1.05208
0.907254
0.330043
0.593375
1.24064
1.13661
0.683278
0.751782
1.51555
0.399881
1.11429
0.982555
1.27074
0.999803
0.809674
0.846687
1.15659
1.20056
0.76193
0.819591
1.0668
0.351704
0.985255
0.823293
0.2627
0.308528
0.330275
1.04379
1.22227
0.369163
1.08507
1.19222
1.24996
0.323351
1.07005
1.3447
0.236841
0.232685
0.230212
1.14402
0.235852
0.192657
0.259268
0.209968
0.204163
0.403515
0.364469
1.09796
0.931198
1.04969
0.998923
0.883301
1.01945
0.760147
1.03357
0.896449
0.684144
0.757729
0.724408
1.10608
1.02981
0.651474
1.09513
0.92862
0.686616
0.851156
0.923232
0.822825
0.789592
0.975551
0.755424
0.75908
0.838869
0.854092
1.00458
0.940446
0.878367
0.965701
1.01959
0.972695
0.817138
0.938219
0.936224
0.743252
0.868461
1.09559
0.812751
0.953658
1.00682
1.04785
0.941428
0.718293
1.1429
1.03409
1.10093
0.744614
1.09939
0.989818
0.734827
0.86485
1.07736
1.2464
0.91689
1.04568
1.05437
0.966682
0.714645
0.89614
0.947596
0.209788
0.812094
0.820101
0.681721
0.388617
0.705404
1.26606
1.17196
0.655891
1.0092
1.15129
0.823032
0.323138
0.834129
1.32072
0.446085
0.115988
0.450899
1.14304
0.638711
0.581042
0.666772
0.655315
0.601739
0.510741
0.697907
0.377492
0.646684
0.45184
0.679481
0.971209
0.693467
0.563879
0.745144
0.71421
)
;

boundaryField
{
    bottom
    {
        type            cyclic;
    }
    top
    {
        type            cyclic;
    }
    lr1
    {
        type            cyclic;
    }
    lr2
    {
        type            cyclic;
    }
    vh1
    {
        type            cyclic;
    }
    vh2
    {
        type            cyclic;
    }
}


// ************************************************************************* //
