/*--------------------------------*- C++ -*----------------------------------*\
  =========                 |
  \\      /  F ield         | OpenFOAM: The Open Source CFD Toolbox
   \\    /   O peration     | Website:  https://openfoam.org
    \\  /    A nd           | Version:  6
     \\/     M anipulation  |
\*---------------------------------------------------------------------------*/
FoamFile
{
    version     2.0;
    format      ascii;
    class       volVectorField;
    location    "2.74";
    object      xiGS;
}
// * * * * * * * * * * * * * * * * * * * * * * * * * * * * * * * * * * * * * //

dimensions      [0 0 0 0 0 0 0];

internalField   nonuniform List<vector> 
256
(
(0.88479 0.818369 0.765061)
(0.849598 0.892443 0.864127)
(0.754055 0.771806 0.679756)
(0.830382 0.672946 0.707931)
(0.934592 0.748638 0.317334)
(0.89437 0.829946 0.675464)
(0.843512 0.795079 0.161926)
(0.953472 0.630645 0.867423)
(0.916358 0.717045 0.690738)
(0.860352 0.812054 0.816231)
(0.802407 0.681786 0.478844)
(0.904849 0.573564 0.71562)
(0.841071 0.969815 0.903162)
(0.7798 0.986969 0.936568)
(0.793658 0.894907 0.855959)
(0.750738 0.810417 0.790932)
(0.879263 0.628251 0.735147)
(0.888716 0.839558 0.750733)
(0.675425 0.839654 0.67842)
(0.886884 0.67505 0.730973)
(0.905008 0.61397 0.681457)
(0.890355 0.709474 0.659327)
(0.894679 0.74221 0.647946)
(0.956485 0.569183 0.700161)
(0.879562 0.672562 0.712334)
(0.910467 0.621347 0.655784)
(0.838924 0.660211 0.602948)
(0.939285 0.633441 0.723536)
(0.853104 0.765625 0.860428)
(0.899541 0.880504 0.863065)
(0.708804 0.846525 0.688973)
(0.779174 0.739743 0.692912)
(0.958518 0.509634 0.753986)
(0.841778 0.746886 0.871561)
(0.803068 0.828816 0.696002)
(0.790577 0.784975 0.600937)
(0.788089 0.45933 0.421441)
(0.884587 0.747258 0.676655)
(0.865715 0.832895 0.319473)
(0.775274 0.6936 0.654514)
(0.73453 0.572891 0.647397)
(0.842692 0.636809 0.718613)
(0.8429 0.665857 0.541621)
(0.714666 0.536216 0.462265)
(0.81664 0.542491 0.831876)
(0.872444 0.818274 0.854666)
(0.764669 0.811032 0.771994)
(0.743947 0.706315 0.648845)
(1.01121 0.66452 0.786156)
(0.913513 0.592411 0.779043)
(0.808947 0.774612 0.704487)
(0.852877 0.837995 0.809215)
(0.830887 0.534361 0.795055)
(0.826604 0.711597 0.582302)
(0.815251 0.811772 0.752952)
(0.690498 0.879124 0.931256)
(0.750036 0.523298 0.727571)
(0.656208 0.654967 0.732009)
(0.707297 0.795107 0.565013)
(0.711246 0.771876 0.761024)
(0.807654 0.593141 0.788204)
(0.743385 0.653289 0.772669)
(0.750119 0.86726 0.614331)
(0.675149 0.840106 0.677317)
(1.07592 0.763206 0.979723)
(1.01526 0.621555 0.801988)
(0.873317 0.769553 0.76892)
(0.881068 0.899187 0.936945)
(0.977409 0.863873 1.06913)
(0.93448 0.662623 0.79063)
(0.882489 0.862926 0.96802)
(0.862234 0.946002 1.02143)
(0.849061 0.830002 0.910164)
(0.764931 0.692469 0.831777)
(0.794286 0.919436 0.722041)
(0.74888 0.957782 0.982571)
(1.08972 0.868153 0.849366)
(0.899674 0.717489 0.894555)
(0.767618 0.931953 0.718247)
(0.825569 1.01742 0.816238)
(1.04411 0.870251 0.90909)
(0.995598 0.886173 0.819732)
(0.889494 0.871422 0.811748)
(0.889687 0.949634 0.891982)
(1.00506 0.970515 0.999169)
(0.959669 0.869973 0.882296)
(0.914265 0.945289 0.935342)
(0.910603 0.960637 0.940952)
(0.977059 0.986497 0.954897)
(0.859183 0.771581 0.887509)
(0.920663 1.01728 0.883117)
(0.803959 1.00596 0.920612)
(1.1251 0.9453 0.915226)
(0.949175 0.933584 0.915821)
(0.820669 0.958569 0.812981)
(0.882847 1.0101 0.852586)
(0.963877 0.972738 0.963936)
(0.954076 0.966446 0.942781)
(0.91835 0.924809 0.862915)
(0.946948 0.927843 0.902146)
(0.977602 1.02272 0.990011)
(0.925586 0.921067 0.844368)
(0.99749 0.916492 0.905383)
(0.971677 0.962112 0.884724)
(1.01916 0.891229 1.00232)
(0.964204 0.772676 0.820784)
(1.06164 0.890495 0.89158)
(1.01148 1.00709 0.964038)
(0.969422 0.965452 1.00119)
(0.919094 0.925715 0.918655)
(0.937508 0.917376 0.910544)
(0.894863 0.939105 0.909824)
(0.956091 0.920057 0.971515)
(0.910341 0.912305 0.883393)
(0.991346 0.977245 0.832292)
(0.957747 0.949616 0.912361)
(0.999528 0.866759 0.908407)
(0.989212 0.859287 0.752075)
(1.0344 0.934567 0.814192)
(1.05259 0.951598 0.91244)
(1.04493 0.626575 0.727031)
(1.05293 0.819175 0.725404)
(1.04887 0.847088 0.654896)
(1.12105 0.837296 0.910294)
(0.959895 0.791976 0.849979)
(0.943146 0.796859 0.684667)
(1.02025 0.875998 0.847161)
(0.992728 0.909426 0.931476)
(0.963739 0.837218 0.979166)
(0.975978 0.920341 0.857434)
(1.01069 0.986136 0.90485)
(1.04111 0.951901 0.955149)
(0.985285 0.737569 0.865192)
(1.02248 0.849874 0.791601)
(1.03068 0.912845 0.799865)
(1.09602 0.872075 0.928676)
(1.0539 0.756339 0.759924)
(1.07163 0.882848 0.812569)
(1.04832 0.86316 0.76389)
(1.12439 0.808247 0.78981)
(1.00911 0.785506 0.757444)
(1.05299 0.847129 0.76926)
(1.00812 0.892389 0.74496)
(1.09415 0.896158 0.967536)
(0.97151 0.810077 0.926773)
(1.0043 0.839 0.837231)
(0.985104 0.905441 0.949212)
(0.986361 0.927604 1.01139)
(0.987027 0.788493 0.821121)
(1.00746 0.736502 0.806266)
(1.0065 0.873999 0.860093)
(1.05354 0.895328 0.959669)
(1.00383 0.748192 0.772071)
(1.04623 0.812791 0.807271)
(0.980455 0.809256 0.814355)
(1.07169 0.822497 0.843391)
(1.00152 0.855055 0.797778)
(0.994967 0.853503 0.834366)
(0.966833 0.88058 0.864038)
(1.01106 0.934313 0.962439)
(0.974727 0.892405 0.926047)
(0.96755 0.83722 0.845984)
(0.971778 0.904967 0.909816)
(0.95706 0.908922 0.965189)
(0.985078 0.913555 0.868314)
(1.02002 0.829117 0.875633)
(0.984158 0.901133 0.906836)
(0.990697 0.937795 0.931954)
(0.991892 0.853239 0.859231)
(1.02471 0.847814 0.904384)
(0.983532 0.893397 0.891708)
(0.955868 0.849475 0.899358)
(0.999536 0.889417 0.865881)
(1.00944 0.870855 0.852064)
(0.964091 0.94743 0.879729)
(0.969052 0.915618 0.959784)
(0.949079 0.896521 0.921639)
(0.993591 0.844062 0.91349)
(0.944339 0.859304 0.952298)
(0.953682 0.94686 0.9475)
(0.959174 0.895445 0.916369)
(1.02849 0.879138 0.912141)
(0.931579 0.880439 0.930445)
(0.939198 0.923177 0.95793)
(0.976538 0.944744 0.897562)
(1.02205 0.936774 0.890982)
(0.949021 0.974054 0.931353)
(0.921959 0.923214 0.948811)
(0.972043 0.94308 0.916301)
(1.01115 0.920109 0.848716)
(0.966584 0.979474 0.948481)
(0.920965 0.937786 0.974068)
(0.946635 0.859664 0.919395)
(0.986338 0.885539 0.923573)
(0.975031 0.873171 0.939402)
(0.967874 0.906466 0.929392)
(0.948507 0.890984 0.958038)
(0.99805 0.941044 0.964199)
(0.963497 0.90966 0.949974)
(0.937812 0.881829 0.946918)
(0.952405 0.933462 0.966932)
(0.983783 0.957118 0.96632)
(0.962571 0.968948 0.9562)
(0.919955 0.917456 0.945742)
(0.948401 0.94327 0.945537)
(0.971264 0.958929 0.889426)
(0.973483 0.962266 0.945353)
(0.930982 0.929806 0.960218)
(0.965383 0.85148 0.915318)
(0.965085 0.926261 0.811743)
(0.957358 0.86618 0.907885)
(0.987968 0.830185 0.95498)
(0.963769 0.829655 0.986618)
(0.981484 0.941625 0.953548)
(0.990928 0.900344 0.954007)
(0.940676 0.843724 0.982203)
(0.963611 0.877238 0.931634)
(0.975784 0.904776 0.833022)
(0.993621 0.911054 0.911647)
(0.961898 0.873852 0.949591)
(0.964462 0.910239 0.792967)
(0.961618 0.929704 0.762557)
(0.926383 0.939442 0.859359)
(1.03644 0.915405 0.918048)
(0.967025 0.661558 0.732467)
(0.97757 0.808195 0.718509)
(0.947121 0.766295 0.708527)
(1.03952 0.641695 0.974646)
(0.951792 0.643202 0.831596)
(0.967484 0.803847 0.625489)
(0.99508 0.812114 0.664179)
(0.994134 0.688818 0.969253)
(0.960261 0.798379 0.715855)
(0.975353 0.850072 0.662693)
(1.00698 0.844348 0.661402)
(1.0458 0.768202 0.956169)
(0.986899 0.734616 0.742866)
(0.967644 0.810385 0.779702)
(0.978894 0.85039 0.774537)
(1.07049 0.741323 0.87529)
(0.935726 0.658395 0.835485)
(0.919323 0.781203 0.802084)
(0.8953 0.690774 0.806359)
(0.947033 0.594067 0.862824)
(0.926508 0.642326 0.818334)
(0.918173 0.834794 0.78972)
(0.937185 0.713734 0.785855)
(0.97141 0.625089 0.891381)
(0.935955 0.756046 0.814721)
(0.896858 0.939895 0.760322)
(0.939292 0.786464 0.76708)
(0.998401 0.580257 0.838918)
(0.913894 0.834134 0.86216)
(0.904014 0.929157 0.836105)
(0.905482 0.805447 0.836892)
(0.967592 0.642458 0.872792)
)
;

boundaryField
{
    bottom
    {
        type            cyclic;
    }
    top
    {
        type            cyclic;
    }
    lr1
    {
        type            cyclic;
    }
    lr2
    {
        type            cyclic;
    }
    vh1
    {
        type            cyclic;
    }
    vh2
    {
        type            cyclic;
    }
}


// ************************************************************************* //
