/*--------------------------------*- C++ -*----------------------------------*\
  =========                 |
  \\      /  F ield         | OpenFOAM: The Open Source CFD Toolbox
   \\    /   O peration     | Website:  https://openfoam.org
    \\  /    A nd           | Version:  6
     \\/     M anipulation  |
\*---------------------------------------------------------------------------*/
FoamFile
{
    version     2.0;
    format      ascii;
    class       volScalarField;
    location    "2.74";
    object      xiPhiDivU;
}
// * * * * * * * * * * * * * * * * * * * * * * * * * * * * * * * * * * * * * //

dimensions      [0 0 0 0 0 0 0];

internalField   nonuniform List<scalar> 
256
(
-0.0125168
-0.115495
-0.118674
-0.0741035
-0.0708766
-0.140012
-0.138274
-0.105143
-0.06235
-0.103689
-0.11914
-0.111609
0.00829455
-0.00673283
-0.0661878
-0.0715956
-0.167853
-0.178078
-0.151495
-0.202494
-0.135531
-0.13642
-0.128798
-0.141107
-0.181343
-0.158257
-0.177651
-0.154219
-0.149035
-0.106249
-0.121439
-0.210313
-0.248466
-0.118011
-0.204155
-0.386984
-0.234145
-0.0811093
-0.206179
-0.247292
-0.282194
-0.161738
-0.20484
-0.309383
-0.266569
-0.0831723
-0.194524
-0.476408
-0.333313
-0.227286
-0.381635
-0.482651
-0.280838
-0.231047
-0.279708
-0.310837
-0.29008
-0.193911
-0.223137
-0.300108
-0.286633
-0.141983
-0.185258
-0.396953
-0.0833095
-0.13189
-0.212887
-0.158488
-0.0612943
-0.148907
-0.135397
-0.0727967
-0.185392
-0.167646
-0.172963
-0.166907
-0.173175
-0.180865
-0.168276
-0.192566
-0.0790817
-0.15408
-0.134971
-0.0967427
-0.0670896
-0.128693
-0.107856
-0.076444
-0.168305
-0.131277
-0.168331
-0.153229
-0.16596
-0.172201
-0.272512
-0.219172
-0.0709518
-0.130589
-0.104394
-0.117791
-0.167572
-0.170592
-0.199727
-0.145267
-0.158771
-0.164762
-0.222276
-0.185896
-0.149201
-0.132255
-0.164079
-0.13454
-0.154422
-0.14889
-0.186528
-0.121818
-0.185509
-0.0962741
-0.221629
-0.323405
-0.264068
-0.179263
-0.217756
-0.311632
-0.17327
-0.131044
-0.148803
-0.161025
-0.0409998
-0.0753079
-0.0710489
-0.108357
0.00393733
-0.0964422
-0.180543
-0.0665745
-0.0920838
-0.126112
-0.136604
-0.0731813
-0.150772
-0.144788
-0.0946441
-0.107367
-0.0428409
-0.0874332
-0.0836078
-0.0399375
-0.0395208
-0.0797174
-0.0770339
0.00581384
-0.110921
-0.0988008
-0.112907
-0.0731174
-0.0715655
-0.174663
-0.145721
-0.0696805
-0.0707466
-0.142871
-0.108511
-0.0534766
-0.110701
-0.0787593
-0.089852
-0.053924
-0.0544686
-0.0225467
-0.0588786
-0.028479
-0.0765518
-0.0838623
-0.126843
-0.046576
-0.0591373
-0.0694329
-0.0634909
-0.0465699
-0.0630911
-0.0503089
-0.0854162
-0.0527991
0.0101519
1.77264e-05
-0.0592848
-0.0266665
-0.0418198
-0.0395536
-0.048205
-0.0264247
-0.0321062
-0.0178488
0.026506
-0.0212972
0.0190433
0.0176245
0.0214532
0.0135259
0.0170653
0.0272817
-0.00751273
-0.0293177
-0.0318793
0.019455
0.0334389
-0.0302864
-0.0848696
-0.0248754
0.0127223
-0.0507247
-0.0155487
-0.031558
0.00972448
-0.0504387
-0.115428
-0.0493438
-0.0385528
-0.0491263
-0.306544
-0.176449
-0.079519
-0.152493
-0.159198
-0.0729361
-0.00523247
-0.0593435
-0.132485
-0.0943684
-0.0329926
-0.0956194
-0.248154
-0.118409
-0.0486612
-0.0903166
-0.14906
-0.149571
-0.0592884
-0.0885043
-0.0391056
-0.105032
-0.0684561
-0.0845632
-0.107693
-0.12262
-0.0889454
-0.0984663
-0.0826947
-0.18791
-0.101752
-0.134051
0.00576434
-0.058936
-0.0806114
-0.0435264
)
;

boundaryField
{
    bottom
    {
        type            cyclic;
    }
    top
    {
        type            cyclic;
    }
    lr1
    {
        type            cyclic;
    }
    lr2
    {
        type            cyclic;
    }
    vh1
    {
        type            cyclic;
    }
    vh2
    {
        type            cyclic;
    }
}


// ************************************************************************* //
