/*--------------------------------*- C++ -*----------------------------------*\
  =========                 |
  \\      /  F ield         | OpenFOAM: The Open Source CFD Toolbox
   \\    /   O peration     | Website:  https://openfoam.org
    \\  /    A nd           | Version:  6
     \\/     M anipulation  |
\*---------------------------------------------------------------------------*/
FoamFile
{
    version     2.0;
    format      ascii;
    class       volVectorField;
    location    "2.74";
    object      xiPhiS;
}
// * * * * * * * * * * * * * * * * * * * * * * * * * * * * * * * * * * * * * //

dimensions      [0 0 0 0 0 0 0];

internalField   nonuniform List<vector> 
256
(
(-0.119596 -0.0834885 0.194487)
(-0.41569 -0.348987 -0.177695)
(-0.475028 0.0873058 0.0464909)
(0.153866 0.193909 0.221867)
(-0.0786714 0.0746316 0.427264)
(-0.201933 -0.166812 -0.111112)
(-0.0736548 0.146393 0.244424)
(0.271313 0.164138 0.264827)
(0.2125 -0.159604 0.216138)
(-0.017907 0.15049 -0.112106)
(-0.223767 -0.136927 0.179094)
(0.262901 -0.211689 0.260193)
(0.286871 -0.0530886 0.047497)
(-0.235715 -0.173877 -0.0293546)
(-0.478234 0.0948237 -0.0336931)
(-0.0509181 -0.109694 0.22665)
(0.299673 -0.125204 -0.184698)
(-0.380541 -0.492265 -0.312788)
(-0.108605 -0.177963 -0.163241)
(0.376167 -0.0942306 -0.115567)
(0.403535 0.0810921 -0.0423637)
(-0.0739957 -0.196669 -0.643769)
(-0.0962245 -0.0625338 -0.155353)
(0.324683 0.113155 -0.118907)
(0.337062 -0.266919 0.165511)
(-0.134549 0.00124459 -0.312806)
(-0.0135986 -0.244869 0.00577714)
(0.250532 -0.253662 0.175522)
(0.285157 -0.0869097 0.0220325)
(-0.311028 -0.253791 -0.0648259)
(0.0377745 -0.266922 -0.0493346)
(0.338316 -0.258787 0.0844942)
(0.711357 -0.166965 -0.0425368)
(0.163816 -0.291146 -0.240329)
(0.218013 -0.270004 -0.0282598)
(0.504373 -0.248242 0.112573)
(0.705719 0.0912593 0.326595)
(0.333936 -0.215999 -0.00177596)
(-0.166266 -0.0591094 0.239675)
(0.446361 0.23342 0.203689)
(0.654028 -0.0458926 0.284744)
(0.106878 0.0646335 -0.170258)
(0.0245091 -0.00865957 0.215214)
(0.30806 0.148565 0.433255)
(0.719633 -0.131044 -0.0510043)
(0.14377 -0.229186 -0.34488)
(0.383789 -0.225668 -0.0859779)
(0.55521 -0.114213 0.141083)
(0.68308 -0.268574 -0.413195)
(0.32233 -0.102611 -0.310847)
(0.344051 -0.298239 -0.383163)
(0.714174 -0.416181 -0.646831)
(0.668373 -0.0891209 -0.367814)
(0.289366 -0.140872 -0.399394)
(0.255606 -0.0670641 -0.355029)
(0.598468 -0.0409321 -0.672037)
(0.637948 0.194861 -0.161515)
(0.0170733 0.16189 -0.467148)
(-0.107593 0.153755 -0.243598)
(0.525496 0.394419 -0.430197)
(0.724057 -0.257282 -0.281629)
(0.172398 -0.0752203 -0.361489)
(0.448006 -0.234869 -0.281357)
(0.76961 0.0280702 -0.527407)
(0.570731 0.00529749 -0.59122)
(0.346107 0.0687207 -0.467871)
(0.381133 -0.185231 -0.43764)
(0.792919 -0.27114 -0.491156)
(0.59948 -0.0915829 -0.61595)
(0.264489 -0.121332 -0.45011)
(0.407185 0.0336936 -0.395525)
(0.736189 0.00718856 -0.453099)
(0.486691 0.134815 -0.616054)
(0.0142567 0.24855 -0.720041)
(0.0483272 0.215988 -0.422067)
(0.678466 0.295812 -0.483349)
(0.715017 0.0630342 -0.594105)
(0.383338 0.150663 -0.550772)
(0.553137 0.115202 -0.423754)
(0.906841 0.355803 -0.458326)
(0.533138 0.228646 -0.435037)
(0.630797 -0.0720338 -0.512691)
(0.499787 -0.100466 -0.356593)
(0.77373 0.174551 -0.132969)
(0.449461 0.233169 -0.434066)
(0.404978 0.0478549 -0.625555)
(0.258547 0.116015 -0.353737)
(0.655778 0.376838 -0.0867562)
(0.475248 0.286831 -0.615466)
(0.108501 0.418646 -0.767988)
(0.00244957 0.34978 -0.453202)
(0.656175 0.285278 -0.376215)
(0.633615 0.354827 -0.56266)
(0.552705 0.188619 -0.54376)
(0.607176 0.379701 -0.501862)
(0.856408 0.425805 -0.488963)
(0.512886 0.310811 -0.437505)
(0.838897 -0.108644 -0.490274)
(0.638111 0.13621 -0.241909)
(0.720893 0.546428 -0.28156)
(0.492268 0.666163 -0.3875)
(0.570632 0.587298 -0.480674)
(0.0514012 0.570271 -0.208228)
(0.662431 0.531257 -0.126608)
(0.587414 0.69284 -0.477983)
(0.259827 0.550125 -0.479654)
(-0.321447 0.494759 -0.295163)
(0.216403 0.444997 -0.278227)
(0.66697 0.196649 -0.536754)
(0.809868 -0.108841 -0.517952)
(0.406866 0.0539784 -0.452549)
(0.831122 0.399088 -0.419583)
(0.693065 0.122505 -0.438437)
(0.706501 0.206171 -0.468327)
(0.0707121 0.0782724 -0.567318)
(0.504617 -0.055552 -0.35548)
(0.673173 0.67857 -0.58818)
(0.224028 0.594608 -0.462412)
(-0.270152 0.393442 -0.532145)
(0.0495868 0.464588 -0.310117)
(0.554479 0.741053 -0.460678)
(0.00017207 0.365266 -0.158531)
(-0.401306 0.164645 -0.274661)
(-0.0961969 0.450756 -0.260793)
(0.715987 0.146584 -0.559238)
(0.469827 -0.0712762 -0.262275)
(-0.288694 -0.0779247 -0.420898)
(0.261712 -0.0743529 -0.400075)
(0.548614 0.387615 -0.461962)
(-0.0681752 0.508134 -0.456155)
(-0.354259 0.0988718 -0.485229)
(-0.22596 -0.20134 -0.322127)
(0.412794 0.518469 -0.513255)
(-0.0267368 0.463036 -0.392869)
(-0.291936 0.0371326 -0.309969)
(-0.169278 0.310472 -0.546537)
(0.253032 0.51952 -0.299548)
(-0.0583522 0.392187 -0.486787)
(-0.362545 0.10371 -0.244378)
(-0.124883 0.407893 -0.349049)
(0.554505 0.422556 -0.233918)
(-0.0621424 0.0875578 -0.384165)
(-0.536038 0.0506172 -0.0937829)
(-0.138385 0.0819449 -0.296373)
(-0.0735455 0.333417 -0.345562)
(-0.0607924 0.012303 -0.437917)
(-0.412191 -0.222812 -0.376297)
(-0.250342 -0.187037 -0.356517)
(0.100457 0.282848 -0.481033)
(0.0156795 0.331495 -0.495292)
(-0.211932 -0.0925176 -0.648101)
(-0.0825861 -0.219255 -0.288446)
(0.25774 0.362115 -0.439778)
(-0.0281209 0.348434 -0.305689)
(-0.541365 0.0174183 -0.570147)
(-0.0229503 0.26774 -0.389338)
(0.300768 0.304133 -0.406217)
(-0.0646069 -0.216085 -0.34661)
(-0.644194 -0.301021 -0.409354)
(-0.167408 0.169248 -0.122976)
(0.0659724 -0.491465 -0.240754)
(0.0830303 -0.679708 -0.34682)
(-0.344679 -0.792357 -0.518479)
(-0.236817 -0.514837 -0.397785)
(0.374358 -0.0613288 -0.211333)
(0.240403 -0.121137 -0.474153)
(-0.0592118 -0.25825 -0.433236)
(0.17705 -0.33894 -0.341123)
(0.427318 -0.0786505 -0.457541)
(0.0333648 0.0162687 -0.544932)
(-0.218374 -0.351252 -0.519818)
(0.174872 -0.222931 -0.378495)
(0.32166 -0.528069 -0.345146)
(-0.0188008 -0.481023 -0.53874)
(-0.279872 -0.615558 -0.588827)
(-0.0213809 -0.38967 -0.489688)
(0.5069 -0.709062 -0.190586)
(0.50419 -0.646353 -0.349078)
(-0.013948 -0.766809 -0.568304)
(0.14585 -0.674671 -0.179431)
(0.555671 -0.192525 -0.453354)
(0.48865 -0.179794 -0.581127)
(0.295995 -0.304303 -0.745456)
(0.278996 -0.324418 -0.414561)
(0.51476 -0.0426499 -0.377037)
(0.404866 -0.149224 -0.576887)
(0.297166 -0.462391 -0.704451)
(0.354213 0.0365712 -0.448239)
(0.431916 -0.708216 -0.295877)
(0.199951 -0.635399 -0.309428)
(0.157902 -0.703342 -0.554678)
(0.152375 -0.496511 -0.278763)
(0.256285 -0.732618 -0.0036655)
(0.170829 -0.49208 -0.23571)
(0.352739 -0.52357 -0.53577)
(0.231484 -0.616586 -0.171945)
(0.283317 -0.180492 -0.264592)
(0.3799 0.00826592 -0.522978)
(0.491639 -0.238671 -0.495706)
(0.38605 -0.137832 -0.200971)
(0.228057 0.51129 -0.292957)
(0.506957 -0.0377446 -0.28771)
(0.479363 -0.214074 -0.524825)
(0.471007 0.611914 -0.366463)
(0.161295 -0.463146 -0.0965347)
(0.432658 -0.248915 -0.393011)
(0.415466 -0.395764 -0.559218)
(0.327593 -0.101282 -0.277437)
(-0.281683 -0.409099 -0.174717)
(-0.465146 0.115105 -0.251276)
(0.248982 -0.0893563 -0.640794)
(0.148212 -0.303432 -0.460587)
(-0.064972 0.187446 -0.372041)
(-0.0379387 0.114637 -0.241393)
(0.526361 -0.107221 -0.452929)
(0.486913 0.103666 -0.502953)
(-0.0576391 0.630075 -0.172312)
(-0.0593791 0.349256 -0.266205)
(0.334594 0.359566 -0.416489)
(0.376409 0.528959 -0.408049)
(-0.239645 0.678441 -0.0462942)
(-0.145128 0.343114 -0.183236)
(0.283037 0.189975 -0.369649)
(0.0409217 0.400923 -0.216982)
(0.104003 0.0352172 -0.230165)
(-0.339289 0.00687637 -0.355263)
(0.0617783 0.16203 -0.399814)
(0.236228 0.199748 -0.378648)
(0.528259 0.130718 -0.286795)
(0.173554 0.147344 -0.171052)
(0.362127 0.205418 -0.334779)
(0.391395 0.306221 -0.407598)
(0.453425 0.667808 -0.201871)
(0.0672297 0.614787 -0.145466)
(0.295328 0.479062 -0.206146)
(0.435099 0.422354 -0.333314)
(0.0454342 0.587003 -0.24549)
(-0.176243 0.5914 -0.402365)
(0.0749849 0.395354 -0.3243)
(0.257291 0.425922 -0.322758)
(0.26385 0.0276916 -0.351877)
(-0.415555 -0.297696 -0.279435)
(-0.241797 0.202619 -0.346649)
(0.299225 0.532112 -0.431204)
(0.457711 0.143267 -0.518483)
(0.0587 -0.00927333 -0.351876)
(0.186164 0.373605 -0.469277)
(0.418592 0.501501 -0.4592)
(0.647225 0.321523 -0.374898)
(0.128887 0.59981 -0.350922)
(0.0964783 0.357332 -0.357287)
(0.538173 0.242931 -0.353269)
(0.466607 0.119431 -0.294858)
(-0.197086 0.174203 -0.373691)
(-0.357081 0.300677 -0.325038)
(0.262776 0.340109 -0.222177)
)
;

boundaryField
{
    bottom
    {
        type            cyclic;
    }
    top
    {
        type            cyclic;
    }
    lr1
    {
        type            cyclic;
    }
    lr2
    {
        type            cyclic;
    }
    vh1
    {
        type            cyclic;
    }
    vh2
    {
        type            cyclic;
    }
}


// ************************************************************************* //
