/*--------------------------------*- C++ -*----------------------------------*\
  =========                 |
  \\      /  F ield         | OpenFOAM: The Open Source CFD Toolbox
   \\    /   O peration     | Website:  https://openfoam.org
    \\  /    A nd           | Version:  6
     \\/     M anipulation  |
\*---------------------------------------------------------------------------*/
FoamFile
{
    version     2.0;
    format      ascii;
    class       volVectorField;
    location    "2.74";
    object      xiPhiG;
}
// * * * * * * * * * * * * * * * * * * * * * * * * * * * * * * * * * * * * * //

dimensions      [0 0 0 0 0 0 0];

internalField   nonuniform List<vector> 
256
(
(0.0353876 -0.255143 -0.398448)
(-0.391922 -0.419266 -0.575451)
(-0.51273 -0.316249 -0.519121)
(0.144489 -0.0651259 -0.301648)
(-0.0721495 -0.176763 -0.136067)
(-0.300205 -0.180479 -0.520883)
(-0.197534 -0.129351 -0.225706)
(0.317898 0.163129 -0.0189478)
(0.179565 -0.293763 -0.271943)
(-0.21912 0.0339113 -0.385591)
(-0.41977 -0.0617645 -0.426008)
(0.208137 -0.204481 -0.268105)
(0.265576 -0.16443 -0.200771)
(-0.302278 -0.268735 -0.0922209)
(-0.492203 -0.213162 -0.314611)
(-0.0892397 -0.195792 -0.259399)
(0.237955 -0.273743 -0.546247)
(-0.353204 -0.545532 -0.658427)
(-0.173937 -0.4139 -0.680574)
(0.573076 -0.409855 -0.631752)
(0.288475 -0.36745 -0.413769)
(-0.180128 -0.279635 -0.787037)
(0.0586421 -0.196849 -0.588133)
(0.378053 -0.33603 -0.493288)
(0.263212 -0.392216 -0.252077)
(-0.286227 -0.16139 -0.432984)
(-0.120348 -0.218305 -0.592331)
(0.242667 -0.54623 -0.459668)
(0.208114 -0.236645 -0.267834)
(-0.364064 -0.34194 -0.221456)
(-0.136292 -0.33069 -0.57687)
(0.275955 -0.521689 -0.498227)
(0.740685 -0.18359 -0.554006)
(0.249141 -0.368366 -0.548636)
(0.61911 -0.303026 -0.721062)
(0.758424 -0.336782 -0.64776)
(0.679048 -0.371735 -0.375513)
(0.46053 -0.276397 -0.588188)
(0.178805 -0.0859771 -0.619764)
(0.506031 -0.152422 -0.278861)
(0.53943 -0.513642 -0.249812)
(0.164247 -0.119112 -0.319327)
(0.157218 -0.100547 -0.622793)
(0.387341 -0.409538 -0.413988)
(0.607113 -0.431254 -0.473592)
(0.077365 -0.342919 -0.340825)
(0.47829 -0.432179 -0.689416)
(0.66481 -0.443476 -0.599628)
(0.711818 -0.1544 -0.622171)
(0.525296 -0.0224696 -0.583213)
(0.659618 -0.133976 -0.670884)
(0.795587 -0.262803 -0.789808)
(0.664752 -0.135472 -0.580525)
(0.500443 0.124552 -0.683312)
(0.428486 0.0592673 -0.614251)
(0.633084 -0.174783 -0.731386)
(0.627176 -0.0556794 -0.384639)
(0.27583 0.430892 -0.585421)
(0.08608 0.314155 -0.542927)
(0.563259 0.156174 -0.64386)
(0.711591 -0.304149 -0.517143)
(0.355334 0.103288 -0.539465)
(0.55966 -0.170166 -0.648359)
(0.795234 0.0123612 -0.724493)
(0.588946 0.22788 -0.697394)
(0.520011 0.313445 -0.657427)
(0.530506 0.0397713 -0.664983)
(0.70799 -0.083784 -0.576803)
(0.652397 -0.049889 -0.726037)
(0.303229 0.186157 -0.657695)
(0.331282 0.128422 -0.590679)
(0.539521 -0.00616859 -0.499422)
(0.616664 0.129699 -0.692434)
(0.20747 0.406156 -0.75468)
(0.145672 0.340466 -0.638033)
(0.458773 0.248462 -0.559967)
(0.830034 0.186694 -0.712998)
(0.558156 0.256151 -0.710616)
(0.597197 0.228877 -0.692942)
(0.812974 0.491592 -0.644162)
(0.667791 0.39371 -0.520766)
(0.76434 0.0473752 -0.73902)
(0.481761 0.108627 -0.560536)
(0.756123 0.322953 -0.301658)
(0.550426 0.271809 -0.518504)
(0.448748 0.289972 -0.723149)
(0.121527 0.206095 -0.443178)
(0.596112 0.409532 -0.228889)
(0.559513 0.210748 -0.671513)
(0.221938 0.339273 -0.766111)
(-0.0231944 0.420782 -0.570243)
(0.449217 0.32024 -0.402693)
(0.703876 0.336794 -0.582819)
(0.654444 -0.111126 -0.732458)
(0.51799 0.416493 -0.701367)
(0.731497 0.444068 -0.599655)
(0.495777 0.340612 -0.480977)
(0.891412 -0.194908 -0.609943)
(0.643004 0.341843 -0.442951)
(0.679331 0.556951 -0.389997)
(0.486927 0.669328 -0.423798)
(0.576456 0.561236 -0.382342)
(0.108714 0.632852 -0.295736)
(0.605024 0.522069 -0.327512)
(0.636095 0.411693 -0.404188)
(0.341606 0.178662 -0.326168)
(-0.410459 0.605237 -0.198692)
(0.313151 0.510121 -0.27395)
(0.62557 -0.251681 -0.582822)
(0.85071 -0.425993 -0.581705)
(0.472355 0.00731864 -0.57018)
(0.723987 0.438173 -0.472777)
(0.622546 -0.201659 -0.490739)
(0.679769 0.0536083 -0.436001)
(0.16967 0.105855 -0.666523)
(0.47019 0.0791812 -0.420201)
(0.665301 0.610698 -0.54096)
(0.333535 0.527071 -0.414628)
(-0.252013 0.514824 -0.497433)
(0.206762 0.461294 -0.3985)
(0.620777 0.116982 -0.15617)
(-0.019492 0.38464 -0.41441)
(-0.415354 0.332487 -0.149906)
(-0.0194258 0.382196 -0.168273)
(0.70719 -0.458371 -0.408533)
(0.512485 -0.204811 -0.380729)
(-0.249894 -0.124183 -0.414825)
(0.37698 -0.146732 -0.46819)
(0.498019 0.212513 -0.526634)
(-0.171463 0.532926 -0.489306)
(-0.403522 0.193895 -0.545311)
(-0.144859 -0.0905757 -0.38469)
(0.457918 0.387118 -0.462402)
(-0.090297 0.645622 -0.601991)
(-0.334624 0.185884 -0.447274)
(-0.0911754 0.357444 -0.5715)
(0.295549 0.390353 -0.428043)
(-0.153053 0.600408 -0.686967)
(-0.426935 0.354561 -0.513656)
(-0.0802027 0.200045 -0.183429)
(0.550535 -0.0211248 -0.224347)
(-0.174788 0.155505 -0.654481)
(-0.594737 0.198562 -0.27939)
(-0.122756 -0.110085 -0.357698)
(-0.103809 0.495438 -0.328135)
(-0.26925 0.123825 -0.515749)
(-0.471162 -0.0778618 -0.358044)
(-0.250317 0.0445875 -0.414595)
(0.128053 0.385379 -0.54077)
(-0.110184 0.711149 -0.670451)
(-0.268526 0.19718 -0.768642)
(-0.041047 -0.0814645 -0.271839)
(0.258768 0.493366 -0.609963)
(-0.0822795 0.438606 -0.529713)
(-0.595967 0.32643 -0.693962)
(0.0178505 0.286402 -0.376106)
(0.262292 0.187923 -0.485435)
(-0.206737 -0.0971355 -0.489711)
(-0.711112 -0.166502 -0.445017)
(-0.165814 0.133845 -0.0777855)
(-0.0233639 -0.52355 -0.46983)
(-0.161156 -0.573594 -0.593723)
(-0.451544 -0.747573 -0.639068)
(-0.30819 -0.442604 -0.464592)
(0.399982 0.0426239 -0.554463)
(0.210341 -0.0144867 -0.670203)
(-0.096146 -0.250436 -0.640136)
(0.179352 -0.271631 -0.586272)
(0.493739 -0.103053 -0.63416)
(0.057126 0.153283 -0.592891)
(-0.214933 -0.353312 -0.583054)
(0.252356 -0.342535 -0.479748)
(0.300067 -0.613132 -0.535018)
(-0.122672 -0.349578 -0.588668)
(-0.410006 -0.624642 -0.521721)
(-0.0579959 -0.493819 -0.503043)
(0.387639 -0.613978 -0.344227)
(0.288242 -0.448855 -0.534394)
(-0.24441 -0.683006 -0.641392)
(0.0309758 -0.71452 -0.307545)
(0.556291 0.0703422 -0.539254)
(0.430471 -0.109904 -0.715973)
(0.142725 -0.184159 -0.744684)
(0.305529 -0.0667393 -0.508911)
(0.541925 -0.0742471 -0.437572)
(0.380706 -0.119322 -0.598882)
(0.212553 -0.527652 -0.686691)
(0.366826 -0.0676126 -0.537932)
(0.322845 -0.752961 -0.364141)
(0.0662581 -0.515971 -0.313535)
(0.0215894 -0.75883 -0.511987)
(0.077868 -0.626469 -0.306239)
(0.083066 -0.517515 -0.173416)
(0.136384 -0.266653 -0.394784)
(0.301616 -0.41559 -0.536307)
(0.0925677 -0.569087 -0.280426)
(0.292256 0.061537 -0.413777)
(0.415201 0.0554027 -0.582371)
(0.419397 -0.0697364 -0.473629)
(0.371402 0.064095 -0.343027)
(0.248328 0.374681 -0.285384)
(0.594021 -0.0117583 -0.247979)
(0.524869 -0.255741 -0.501536)
(0.485995 0.538432 -0.441235)
(0.10805 -0.384164 -0.159043)
(0.484569 -0.220443 -0.286241)
(0.498009 -0.448612 -0.511803)
(0.352006 -0.0804461 -0.317636)
(-0.328266 -0.107241 -0.23142)
(-0.414664 0.205114 -0.349884)
(0.24999 0.0218808 -0.521101)
(-0.0199714 -0.130841 -0.466477)
(-0.114578 0.181713 -0.401008)
(0.0292888 0.182299 -0.182039)
(0.564345 -0.0107255 -0.343249)
(0.421358 0.0784441 -0.526285)
(0.0110881 0.633374 -0.132144)
(0.13475 0.362181 -0.242636)
(0.466898 0.341695 -0.346882)
(0.422999 0.52087 -0.453568)
(-0.10836 0.621076 0.0360343)
(-0.0652498 0.343535 -0.350384)
(0.298043 0.168443 -0.377217)
(0.0148107 0.469361 -0.22961)
(0.0490924 -0.0149564 -0.319873)
(-0.422816 -0.165367 -0.562088)
(-0.108362 0.17388 -0.341615)
(0.0401481 0.200699 -0.331719)
(0.437424 0.225516 -0.21894)
(0.0420412 0.217136 -0.252019)
(0.308996 0.280375 -0.132782)
(0.261923 0.284512 -0.473035)
(0.42734 0.74161 -0.166531)
(0.0141004 0.600955 -0.309058)
(0.222608 0.440758 -0.147052)
(0.332886 0.563501 -0.359989)
(0.104222 0.561812 -0.254723)
(-0.218008 0.467498 -0.453387)
(-0.180876 0.417337 -0.278107)
(0.155753 0.592884 -0.222316)
(0.441486 -0.259516 -0.505697)
(-0.55058 -0.580733 -0.571369)
(-0.427122 -0.116231 -0.465876)
(0.196279 0.412489 -0.43127)
(0.429147 0.17844 -0.457324)
(-0.060627 -0.10069 -0.511282)
(0.128164 0.342256 -0.343682)
(0.407205 0.621391 -0.422551)
(0.65591 0.427395 -0.407088)
(-0.120686 0.713011 -0.451845)
(-0.118298 0.472386 -0.354969)
(0.457571 0.486851 -0.428444)
(0.549882 0.0853944 -0.324529)
(-0.374449 0.0429939 -0.352747)
(-0.580653 0.134528 -0.33313)
(0.200898 0.203185 -0.276473)
)
;

boundaryField
{
    bottom
    {
        type            cyclic;
    }
    top
    {
        type            cyclic;
    }
    lr1
    {
        type            cyclic;
    }
    lr2
    {
        type            cyclic;
    }
    vh1
    {
        type            cyclic;
    }
    vh2
    {
        type            cyclic;
    }
}


// ************************************************************************* //
