/*--------------------------------*- C++ -*----------------------------------*\
  =========                 |
  \\      /  F ield         | OpenFOAM: The Open Source CFD Toolbox
   \\    /   O peration     | Website:  https://openfoam.org
    \\  /    A nd           | Version:  6
     \\/     M anipulation  |
\*---------------------------------------------------------------------------*/
FoamFile
{
    version     2.0;
    format      ascii;
    class       volScalarField;
    location    "2.74";
    object      xiPhi2DivU;
}
// * * * * * * * * * * * * * * * * * * * * * * * * * * * * * * * * * * * * * //

dimensions      [0 0 0 0 0 0 0];

internalField   nonuniform List<scalar> 
256
(
-0.032639
0.0209514
-0.0927124
-0.147969
-0.024331
0.0160009
-0.0374631
-0.0593732
-0.0877676
-0.0341078
-0.023734
-0.0323879
-0.0472535
0.0116662
-0.0355465
-0.0463627
-0.170038
-0.030906
-0.173254
-0.20392
-0.00414085
0.0454235
-0.0262924
-0.122156
-0.13369
-0.0826664
-0.102364
-0.0136376
-0.0393412
-0.158594
-0.035518
-0.0876225
-0.242766
-0.21947
-0.22137
0.0529848
-0.145015
-0.0561448
-0.179513
0.00564637
-0.151036
-0.222025
-0.122162
0.0669716
-0.207165
-0.0937249
-0.178871
0.0722999
-0.0760419
-0.273216
-0.171869
0.284145
-0.176407
-0.218656
-0.230667
0.0414747
-0.0905444
-0.189305
-0.127524
0.0616499
-0.0379216
-0.212534
-0.0489987
0.159193
0.0627511
0.0750706
-0.03118
0.114276
-0.0102528
-0.0194858
-0.0460947
-0.0246735
-0.0476847
-0.0469672
-0.0336548
-0.0129075
-0.0779754
-0.0912657
0.0065674
-0.00904064
-0.0266815
-0.009235
0.044894
-0.00632162
-0.00499243
0.0364922
0.0512929
0.00811285
-0.0818381
0.0196003
-0.0172393
-0.0342994
-0.169559
-0.038101
0.00826913
0.0132759
-0.0057655
-0.0229721
0.0830894
-0.0226073
-0.108026
-0.154015
0.0600157
-0.0226509
-0.14857
-0.0606286
-0.0814874
-0.130289
-0.0625468
-0.0250705
-0.0379517
-0.0267918
-0.014966
0.0344005
0.267607
-0.0398464
-0.0255457
0.00775666
0.241965
-0.0123849
-0.0655864
0.0816322
0.072658
-0.115573
-0.0289668
-0.00897336
0.0847436
-0.0869794
0.0360658
0.0855673
0.0749563
0.0429389
-0.0031811
0.0862771
0.16099
-0.00058871
0.0711203
0.0774234
0.109023
-0.0184442
0.00754563
0.0678141
0.0905767
-0.0022982
0.112448
0.0789588
0.110892
0.127549
0.0733367
0.0770485
0.112899
0.023395
0.136653
0.0129058
0.144996
0.111211
0.0935042
0.0258202
0.145495
0.113078
0.0121641
-0.0290869
0.0849509
0.0713737
0.0281745
0.00235139
0.0809875
0.0600468
0.00741532
-0.0197368
0.0300088
0.0121905
-0.003079
-0.0182261
0.0132058
0.0414268
-0.055184
-0.0762478
0.00219358
-0.0267493
-0.00171942
-0.020839
0.0512641
0.0103431
-0.0770646
-0.0211065
0.0383015
-0.00105269
-0.0896622
-0.095898
-0.00600727
-0.0233382
-0.0696772
-0.0975453
-0.000356128
-0.0214459
0.0173577
0.0167762
0.0459864
0.0251844
-0.00739942
-0.00536626
0.0295494
0.0206479
-0.0877314
0.0411894
0.034383
0.0164804
-0.0666234
0.10409
0.0689452
-0.0125832
0.0068095
0.0500003
0.0194174
-0.0814533
-0.0105296
0.171573
0.0605128
-0.0152996
-0.0528862
0.129062
0.0798647
-0.0325482
0.00336967
0.0463613
0.0254079
-0.0179919
-0.00598671
0.00574091
0.054816
-0.0865878
-0.0122526
0.0686388
0.0673033
0.00196547
0.00951552
0.0433522
0.0198348
-0.000524399
-0.000669175
0.0869201
-0.0196446
-0.0608557
-0.0458323
0.000922695
-0.0119749
-0.007857
-0.0458127
-0.0252944
0.0363189
-0.0422491
-0.0336356
0.022797
-0.0103193
-0.022392
)
;

boundaryField
{
    bottom
    {
        type            cyclic;
    }
    top
    {
        type            cyclic;
    }
    lr1
    {
        type            cyclic;
    }
    lr2
    {
        type            cyclic;
    }
    vh1
    {
        type            cyclic;
    }
    vh2
    {
        type            cyclic;
    }
}


// ************************************************************************* //
