/*--------------------------------*- C++ -*----------------------------------*\
  =========                 |
  \\      /  F ield         | OpenFOAM: The Open Source CFD Toolbox
   \\    /   O peration     | Website:  https://openfoam.org
    \\  /    A nd           | Version:  6
     \\/     M anipulation  |
\*---------------------------------------------------------------------------*/
FoamFile
{
    version     2.0;
    format      ascii;
    class       volScalarField;
    location    "2.74";
    object      xiPhiGG;
}
// * * * * * * * * * * * * * * * * * * * * * * * * * * * * * * * * * * * * * //

dimensions      [0 0 0 0 0 0 0];

internalField   nonuniform List<scalar> 
256
(
-0.1757
-0.0584733
-0.227015
-0.0242602
-0.475908
-0.316747
-0.453257
-0.375854
-0.137526
-0.206501
-0.22709
-0.459426
-0.0483069
0.460493
-0.133073
-0.089331
-0.664718
-0.374354
-0.47738
-0.315419
-0.697976
-0.762064
-0.699238
0.295804
-0.492061
-0.544094
-0.661596
-0.490265
-0.436265
0.256141
-0.503441
-0.382922
-0.076325
-0.0740797
0.173488
0.0159221
-0.00542237
-0.442963
0.314789
0.0508881
-0.348007
-0.446718
-0.245829
0.00632066
-0.102302
-0.260056
0.200083
-0.262177
-0.0103331
-0.0912539
-0.0799887
-0.27672
-0.0563872
-0.208267
-0.0764971
-0.123388
-0.358724
-0.0640306
-0.388722
-0.484522
-0.371955
0.134655
-0.269099
-0.557444
0.587454
0.0067844
-0.0700344
0.0175589
0.983618
0.0891112
0.384224
0.507028
0.246657
-0.0702037
-0.117285
0.467156
0.424608
0.253766
-0.152227
-0.164093
0.166562
-0.0206024
-0.237319
-0.341863
0.493685
-0.0146971
0.0967752
-0.0112156
0.140954
0.0147695
-0.090492
-0.18918
0.305686
0.189179
-0.204374
-0.361954
-0.1123
0.0083269
-0.461159
-0.45575
0.291488
0.232506
-0.221168
-0.345072
0.575457
0.292528
0.332157
0.0268122
0.147705
-0.0226878
-0.153657
-0.366654
0.0469519
-0.0922014
-0.824116
-0.453825
0.217568
0.137976
-0.34723
-0.240186
0.466335
-0.704618
0.115797
-0.0159348
0.234663
-0.000200676
-0.204956
-0.144108
0.140948
0.192784
-0.248166
-0.166984
0.0655895
-0.802446
-0.0154344
-0.167788
-0.91569
-0.814721
-0.83099
0.0424983
0.206703
-0.694798
0.0846555
0.175279
0.233345
-0.807385
0.0720039
0.324038
-0.99
-0.99
-0.99
0.142082
-0.99
-0.975703
-0.99
-0.99
-0.99
-0.663308
-0.729637
0.093603
-0.0744035
0.0487761
-0.00114891
-0.128321
0.0204765
-0.276552
0.0355062
-0.114707
-0.398219
-0.228825
-0.307446
0.108513
0.0293372
-0.39121
0.0964279
-0.0713648
-0.359734
-0.151344
-0.0844349
-0.204954
-0.372346
-0.0333074
-0.3063
-0.328887
-0.183103
-0.143154
0.0046603
-0.0665126
-0.115913
-0.0367456
0.0247235
-0.0263391
-0.206003
-0.0672747
-0.0710045
-0.30971
-0.24525
0.119216
-0.266053
-0.0571245
0.0078656
0.0463552
-0.0574728
-0.325075
0.138243
0.0365592
0.114046
-0.263013
0.0913668
-0.0110957
-0.300018
-0.145932
0.104327
0.280282
-0.106854
0.0460911
0.0687143
-0.0386383
-0.334553
-0.101587
-0.0495145
-0.851433
-0.190868
-0.168893
-0.292572
-0.651921
-0.296114
0.242428
0.150548
-0.331423
0.00919931
0.126785
-0.164127
-0.69377
-0.162597
0.296103
-0.531123
-0.99
-0.515998
0.121486
-0.336723
-0.365707
-0.3046
-0.300244
-0.354714
-0.45749
-0.269456
-0.559757
-0.322154
-0.49431
-0.27701
-0.0244067
-0.261806
-0.422124
-0.213655
-0.234912
)
;

boundaryField
{
    bottom
    {
        type            cyclic;
    }
    top
    {
        type            cyclic;
    }
    lr1
    {
        type            cyclic;
    }
    lr2
    {
        type            cyclic;
    }
    vh1
    {
        type            cyclic;
    }
    vh2
    {
        type            cyclic;
    }
}


// ************************************************************************* //
